 Entering Gaussian System, Link 0=g16
 Input=BTBT_g.gjf
 Output=BTBT_g.log
 Initial command:
 /share/apps/gaussian/g16/l1.exe "/home/ciwang/Huang_Rhys_Factor/cc-pVDZ/BTBT/Gau-174134.inp" -scrdir="/home/ciwang/Huang_Rhys_Factor/cc-pVDZ/BTBT/"
 Entering Link 1 = /share/apps/gaussian/g16/l1.exe PID=    174135.
  
 Copyright (c) 1988-2019, Gaussian, Inc.  All Rights Reserved.
  
 This is part of the Gaussian(R) 16 program.  It is based on
 the Gaussian(R) 09 system (copyright 2009, Gaussian, Inc.),
 the Gaussian(R) 03 system (copyright 2003, Gaussian, Inc.),
 the Gaussian(R) 98 system (copyright 1998, Gaussian, Inc.),
 the Gaussian(R) 94 system (copyright 1995, Gaussian, Inc.),
 the Gaussian 92(TM) system (copyright 1992, Gaussian, Inc.),
 the Gaussian 90(TM) system (copyright 1990, Gaussian, Inc.),
 the Gaussian 88(TM) system (copyright 1988, Gaussian, Inc.),
 the Gaussian 86(TM) system (copyright 1986, Carnegie Mellon
 University), and the Gaussian 82(TM) system (copyright 1983,
 Carnegie Mellon University). Gaussian is a federally registered
 trademark of Gaussian, Inc.
  
 This software contains proprietary and confidential information,
 including trade secrets, belonging to Gaussian, Inc.
  
 This software is provided under written license and may be
 used, copied, transmitted, or stored only in accord with that
 written license.
  
 The following legend is applicable only to US Government
 contracts under FAR:
  
                    RESTRICTED RIGHTS LEGEND
  
 Use, reproduction and disclosure by the US Government is
 subject to restrictions as set forth in subparagraphs (a)
 and (c) of the Commercial Computer Software - Restricted
 Rights clause in FAR 52.227-19.
  
 Gaussian, Inc.
 340 Quinnipiac St., Bldg. 40, Wallingford CT 06492
  
  
 ---------------------------------------------------------------
 Warning -- This program may not be used in any manner that
 competes with the business of Gaussian, Inc. or will provide
 assistance to any competitor of Gaussian, Inc.  The licensee
 of this program is prohibited from giving any competitor of
 Gaussian, Inc. access to this program.  By using this program,
 the user acknowledges that Gaussian, Inc. is engaged in the
 business of creating and licensing software in the field of
 computational chemistry and represents and warrants to the
 licensee that it is not a competitor of Gaussian, Inc. and that
 it will not use this program in any manner prohibited above.
 ---------------------------------------------------------------
  

 Cite this work as:
 Gaussian 16, Revision C.01,
 M. J. Frisch, G. W. Trucks, H. B. Schlegel, G. E. Scuseria, 
 M. A. Robb, J. R. Cheeseman, G. Scalmani, V. Barone, 
 G. A. Petersson, H. Nakatsuji, X. Li, M. Caricato, A. V. Marenich, 
 J. Bloino, B. G. Janesko, R. Gomperts, B. Mennucci, H. P. Hratchian, 
 J. V. Ortiz, A. F. Izmaylov, J. L. Sonnenberg, D. Williams-Young, 
 F. Ding, F. Lipparini, F. Egidi, J. Goings, B. Peng, A. Petrone, 
 T. Henderson, D. Ranasinghe, V. G. Zakrzewski, J. Gao, N. Rega, 
 G. Zheng, W. Liang, M. Hada, M. Ehara, K. Toyota, R. Fukuda, 
 J. Hasegawa, M. Ishida, T. Nakajima, Y. Honda, O. Kitao, H. Nakai, 
 T. Vreven, K. Throssell, J. A. Montgomery, Jr., J. E. Peralta, 
 F. Ogliaro, M. J. Bearpark, J. J. Heyd, E. N. Brothers, K. N. Kudin, 
 V. N. Staroverov, T. A. Keith, R. Kobayashi, J. Normand, 
 K. Raghavachari, A. P. Rendell, J. C. Burant, S. S. Iyengar, 
 J. Tomasi, M. Cossi, J. M. Millam, M. Klene, C. Adamo, R. Cammi, 
 J. W. Ochterski, R. L. Martin, K. Morokuma, O. Farkas, 
 J. B. Foresman, and D. J. Fox, Gaussian, Inc., Wallingford CT, 2019.
 
 ******************************************
 Gaussian 16:  ES64L-G16RevC.01  3-Jul-2019
                21-Jan-2023 
 ******************************************
  %Chk=BTBT_g.chk
  %NProcShared=12
 Will use up to   12 processors via shared memory.
 ----------------------------------------------------------------------
 # opt=tight freq=(savenormalmodes,hpmodes) wB97XD/cc-pVDZ Symmetry=Loo
 se int=ultrafine MaxDisk=20GB
 ----------------------------------------------------------------------
 1/7=10,18=20,19=15,26=4,38=1/1,3;
 2/9=110,12=2,17=4,18=3,40=1/2;
 3/5=16,11=2,25=1,30=1,71=1,74=-58,75=-5/1,2,3;
 4//1;
 5/5=2,38=5/2;
 6/7=2,8=2,9=2,10=2,28=1/1;
 7/92=1/1,2,3,16;
 1/7=10,18=20,19=15,26=4/3(2);
 2/9=110/2;
 99//99;
 2/9=110/2;
 3/5=16,11=2,25=1,30=1,71=1,74=-58,75=-5/1,2,3;
 4/5=5,16=3,69=1/1;
 5/5=2,38=5/2;
 7/92=1/1,2,3,16;
 1/7=10,18=20,19=15,26=4/3(-5);
 2/9=110/2;
 6/7=2,8=2,9=2,10=2,19=2,28=1/1;
 99/9=1/99;
 ------
 BTBT_g
 ------
 Symbolic Z-matrix:
 Charge =  0 Multiplicity = 1
 S                    -2.37678  -1.47393   0.43768 
 C                    -1.18468  -2.69381   0.37203 
 C                    -1.37256  -4.0615    0.18824 
 C                    -0.24329  -4.92973   0.14744 
 C                     1.04788  -4.33876   0.30663 
 C                     1.21181  -2.95905   0.49491 
 C                     0.08499  -2.15071   0.52283 
 C                     0.03166  -0.77487   0.68522 
 S                     1.1872    0.4338    0.90271 
 C                     0.00484   1.65751   0.95218 
 C                     0.21244   3.02247   1.10583 
 C                    -0.90396   3.88592   1.10224 
 C                    -2.20562   3.34484   0.96059 
 C                    -2.39734   1.9595    0.81183 
 C                    -1.27705   1.12818   0.80538 
 C                    -1.23117  -0.25277   0.65824 
 H                    -2.38639  -4.40346   0.07102 
 H                     1.95535  -4.91614   0.29629 
 H                     2.20138  -2.53514   0.61263 
 H                     1.21928   3.40311   1.21879 
 H                    -3.07081   3.99586   0.95966 
 H                    -3.3938    1.55164   0.69863 
 C                    -0.40376  -6.42246  -0.06266 
 C                    -1.67925  -7.0352   -0.08419 
 C                     0.7153   -7.27004  -0.25039 
 C                    -1.82176  -8.41088  -0.28155 
 C                     0.56781  -8.6456   -0.4505 
 C                    -0.70955  -9.23268  -0.46895 
 H                     1.72636  -6.90206  -0.25819 
 H                    -2.59116  -6.48096   0.05569 
 H                     1.46877  -9.22171  -0.5871 
 H                    -2.81474  -8.8438   -0.28961 
 O                    -0.93434  -10.56151  -0.6577 
 C                    -0.02798  -11.57532  -0.91102 
 H                    -0.09328  -12.32922  -0.09995 
 H                     1.01989  -11.23739  -0.98717 
 H                    -0.29684  -12.06504  -1.86942 
 C                    -0.69945   5.37454   1.24792 
 C                     0.13351   5.92704   0.08134 
 C                     0.41151   7.42589   0.23838 
 C                     1.28754   7.92745  -0.91684 
 C                     1.63921   9.41015  -0.75627 
 C                     2.54912   9.87557  -1.9001 
 C                     2.93818   11.34847  -1.73616 
 C                     3.85681   11.80159  -2.86767 
 H                    -0.18006   5.56761   2.21171 
 H                    -1.67723   5.90423   1.27016 
 H                     1.11032   5.39928   0.04046 
 H                    -0.40713   5.74506  -0.87394 
 H                     0.94641   7.59462   1.1991 
 H                    -0.54746   7.98887   0.25748 
 H                     2.23136   7.33824  -0.93479 
 H                     0.75309   7.77367  -1.88041 
 H                     2.1687    9.55544   0.21131 
 H                     0.70646   10.01596  -0.7494 
 H                     3.47353   9.25616  -1.90551 
 H                     2.02161   9.73805  -2.86992 
 H                     3.46795   11.48871  -0.76859 
 H                     2.02346   11.98023  -1.73788 
 H                     3.34582   11.69188  -3.84788 
 H                     4.12702   12.86884  -2.72406 
 H                     4.78921   11.19719  -2.8733 
 

 GradGradGradGradGradGradGradGradGradGradGradGradGradGradGradGradGradGrad
 Berny optimization.
 Initialization pass.
                           ----------------------------
                           !    Initial Parameters    !
                           ! (Angstroms and Degrees)  !
 --------------------------                            --------------------------
 ! Name  Definition              Value          Derivative Info.                !
 --------------------------------------------------------------------------------
 ! R1    R(1,2)                  1.7069         estimate D2E/DX2                !
 ! R2    R(1,16)                 1.6889         estimate D2E/DX2                !
 ! R3    R(2,3)                  1.3927         estimate D2E/DX2                !
 ! R4    R(2,7)                  1.3892         estimate D2E/DX2                !
 ! R5    R(3,4)                  1.425          estimate D2E/DX2                !
 ! R6    R(3,17)                 1.0763         estimate D2E/DX2                !
 ! R7    R(4,5)                  1.4289         estimate D2E/DX2                !
 ! R8    R(4,23)                 1.516          estimate D2E/DX2                !
 ! R9    R(5,6)                  1.4021         estimate D2E/DX2                !
 ! R10   R(5,18)                 1.0756         estimate D2E/DX2                !
 ! R11   R(6,7)                  1.3871         estimate D2E/DX2                !
 ! R12   R(6,19)                 1.083          estimate D2E/DX2                !
 ! R13   R(7,8)                  1.3864         estimate D2E/DX2                !
 ! R14   R(8,9)                  1.6863         estimate D2E/DX2                !
 ! R15   R(8,16)                 1.3668         estimate D2E/DX2                !
 ! R16   R(9,10)                 1.7023         estimate D2E/DX2                !
 ! R17   R(10,11)                1.3892         estimate D2E/DX2                !
 ! R18   R(10,15)                1.3946         estimate D2E/DX2                !
 ! R19   R(11,12)                1.4113         estimate D2E/DX2                !
 ! R20   R(11,20)                1.0823         estimate D2E/DX2                !
 ! R21   R(12,13)                1.4167         estimate D2E/DX2                !
 ! R22   R(12,38)                1.5096         estimate D2E/DX2                !
 ! R23   R(13,14)                1.4064         estimate D2E/DX2                !
 ! R24   R(13,21)                1.0828         estimate D2E/DX2                !
 ! R25   R(14,15)                1.3951         estimate D2E/DX2                !
 ! R26   R(14,22)                1.0826         estimate D2E/DX2                !
 ! R27   R(15,16)                1.3895         estimate D2E/DX2                !
 ! R28   R(23,24)                1.4152         estimate D2E/DX2                !
 ! R29   R(23,25)                1.4163         estimate D2E/DX2                !
 ! R30   R(24,26)                1.3971         estimate D2E/DX2                !
 ! R31   R(24,30)                1.0763         estimate D2E/DX2                !
 ! R32   R(25,27)                1.3978         estimate D2E/DX2                !
 ! R33   R(25,29)                1.076          estimate D2E/DX2                !
 ! R34   R(26,28)                1.3955         estimate D2E/DX2                !
 ! R35   R(26,32)                1.0833         estimate D2E/DX2                !
 ! R36   R(27,28)                1.4059         estimate D2E/DX2                !
 ! R37   R(27,31)                1.0781         estimate D2E/DX2                !
 ! R38   R(28,33)                1.3609         estimate D2E/DX2                !
 ! R39   R(33,34)                1.3833         estimate D2E/DX2                !
 ! R40   R(34,35)                1.1093         estimate D2E/DX2                !
 ! R41   R(34,36)                1.1036         estimate D2E/DX2                !
 ! R42   R(34,37)                1.1093         estimate D2E/DX2                !
 ! R43   R(38,39)                1.5362         estimate D2E/DX2                !
 ! R44   R(38,46)                1.1117         estimate D2E/DX2                !
 ! R45   R(38,47)                1.1123         estimate D2E/DX2                !
 ! R46   R(39,40)                1.5325         estimate D2E/DX2                !
 ! R47   R(39,48)                1.111          estimate D2E/DX2                !
 ! R48   R(39,49)                1.1126         estimate D2E/DX2                !
 ! R49   R(40,41)                1.5341         estimate D2E/DX2                !
 ! R50   R(40,50)                1.1125         estimate D2E/DX2                !
 ! R51   R(40,51)                1.1122         estimate D2E/DX2                !
 ! R52   R(41,42)                1.5323         estimate D2E/DX2                !
 ! R53   R(41,52)                1.1128         estimate D2E/DX2                !
 ! R54   R(41,53)                1.1125         estimate D2E/DX2                !
 ! R55   R(42,43)                1.5339         estimate D2E/DX2                !
 ! R56   R(42,54)                1.1125         estimate D2E/DX2                !
 ! R57   R(42,55)                1.1122         estimate D2E/DX2                !
 ! R58   R(43,44)                1.5322         estimate D2E/DX2                !
 ! R59   R(43,56)                1.1128         estimate D2E/DX2                !
 ! R60   R(43,57)                1.1125         estimate D2E/DX2                !
 ! R61   R(44,45)                1.5263         estimate D2E/DX2                !
 ! R62   R(44,58)                1.112          estimate D2E/DX2                !
 ! R63   R(44,59)                1.1117         estimate D2E/DX2                !
 ! R64   R(45,60)                1.1108         estimate D2E/DX2                !
 ! R65   R(45,61)                1.1103         estimate D2E/DX2                !
 ! R66   R(45,62)                1.1112         estimate D2E/DX2                !
 ! A1    A(2,1,16)              92.7531         estimate D2E/DX2                !
 ! A2    A(1,2,3)              127.7845         estimate D2E/DX2                !
 ! A3    A(1,2,7)              110.7778         estimate D2E/DX2                !
 ! A4    A(3,2,7)              121.4366         estimate D2E/DX2                !
 ! A5    A(2,3,4)              119.6826         estimate D2E/DX2                !
 ! A6    A(2,3,17)             116.9641         estimate D2E/DX2                !
 ! A7    A(4,3,17)             123.3488         estimate D2E/DX2                !
 ! A8    A(3,4,5)              117.445          estimate D2E/DX2                !
 ! A9    A(3,4,23)             121.3333         estimate D2E/DX2                !
 ! A10   A(5,4,23)             121.2212         estimate D2E/DX2                !
 ! A11   A(4,5,6)              121.8427         estimate D2E/DX2                !
 ! A12   A(4,5,18)             122.6343         estimate D2E/DX2                !
 ! A13   A(6,5,18)             115.5221         estimate D2E/DX2                !
 ! A14   A(5,6,7)              118.7628         estimate D2E/DX2                !
 ! A15   A(5,6,19)             120.4384         estimate D2E/DX2                !
 ! A16   A(7,6,19)             120.7984         estimate D2E/DX2                !
 ! A17   A(2,7,6)              120.8293         estimate D2E/DX2                !
 ! A18   A(2,7,8)              111.4403         estimate D2E/DX2                !
 ! A19   A(6,7,8)              127.7296         estimate D2E/DX2                !
 ! A20   A(7,8,9)              134.4316         estimate D2E/DX2                !
 ! A21   A(7,8,16)             114.3501         estimate D2E/DX2                !
 ! A22   A(9,8,16)             111.2168         estimate D2E/DX2                !
 ! A23   A(8,9,10)              92.4669         estimate D2E/DX2                !
 ! A24   A(9,10,11)            127.2817         estimate D2E/DX2                !
 ! A25   A(9,10,15)            111.2547         estimate D2E/DX2                !
 ! A26   A(11,10,15)           121.4621         estimate D2E/DX2                !
 ! A27   A(10,11,12)           118.8575         estimate D2E/DX2                !
 ! A28   A(10,11,20)           119.7442         estimate D2E/DX2                !
 ! A29   A(12,11,20)           121.3971         estimate D2E/DX2                !
 ! A30   A(11,12,13)           119.5618         estimate D2E/DX2                !
 ! A31   A(11,12,38)           119.7268         estimate D2E/DX2                !
 ! A32   A(13,12,38)           120.7113         estimate D2E/DX2                !
 ! A33   A(12,13,14)           120.7978         estimate D2E/DX2                !
 ! A34   A(12,13,21)           120.3051         estimate D2E/DX2                !
 ! A35   A(14,13,21)           118.8962         estimate D2E/DX2                !
 ! A36   A(13,14,15)           118.5541         estimate D2E/DX2                !
 ! A37   A(13,14,22)           120.5044         estimate D2E/DX2                !
 ! A38   A(15,14,22)           120.9403         estimate D2E/DX2                !
 ! A39   A(10,15,14)           120.7615         estimate D2E/DX2                !
 ! A40   A(10,15,16)           110.9777         estimate D2E/DX2                !
 ! A41   A(14,15,16)           128.26           estimate D2E/DX2                !
 ! A42   A(1,16,8)             110.6779         estimate D2E/DX2                !
 ! A43   A(1,16,15)            135.2374         estimate D2E/DX2                !
 ! A44   A(8,16,15)            114.0828         estimate D2E/DX2                !
 ! A45   A(4,23,24)            121.5907         estimate D2E/DX2                !
 ! A46   A(4,23,25)            121.6013         estimate D2E/DX2                !
 ! A47   A(24,23,25)           116.8077         estimate D2E/DX2                !
 ! A48   A(23,24,26)           121.3614         estimate D2E/DX2                !
 ! A49   A(23,24,30)           122.5957         estimate D2E/DX2                !
 ! A50   A(26,24,30)           116.0415         estimate D2E/DX2                !
 ! A51   A(23,25,27)           121.6353         estimate D2E/DX2                !
 ! A52   A(23,25,29)           122.5988         estimate D2E/DX2                !
 ! A53   A(27,25,29)           115.7634         estimate D2E/DX2                !
 ! A54   A(24,26,28)           121.1678         estimate D2E/DX2                !
 ! A55   A(24,26,32)           119.2145         estimate D2E/DX2                !
 ! A56   A(28,26,32)           119.6177         estimate D2E/DX2                !
 ! A57   A(25,27,28)           120.5745         estimate D2E/DX2                !
 ! A58   A(25,27,31)           117.1178         estimate D2E/DX2                !
 ! A59   A(28,27,31)           122.3077         estimate D2E/DX2                !
 ! A60   A(26,28,27)           118.4528         estimate D2E/DX2                !
 ! A61   A(26,28,33)           117.5162         estimate D2E/DX2                !
 ! A62   A(27,28,33)           124.0309         estimate D2E/DX2                !
 ! A63   A(28,33,34)           129.2584         estimate D2E/DX2                !
 ! A64   A(33,34,35)           109.0042         estimate D2E/DX2                !
 ! A65   A(33,34,36)           114.226          estimate D2E/DX2                !
 ! A66   A(33,34,37)           108.8415         estimate D2E/DX2                !
 ! A67   A(35,34,36)           108.3274         estimate D2E/DX2                !
 ! A68   A(35,34,37)           108.5055         estimate D2E/DX2                !
 ! A69   A(36,34,37)           107.7986         estimate D2E/DX2                !
 ! A70   A(12,38,39)           110.7819         estimate D2E/DX2                !
 ! A71   A(12,38,46)           108.5539         estimate D2E/DX2                !
 ! A72   A(12,38,47)           110.6364         estimate D2E/DX2                !
 ! A73   A(39,38,46)           110.0326         estimate D2E/DX2                !
 ! A74   A(39,38,47)           108.6971         estimate D2E/DX2                !
 ! A75   A(46,38,47)           108.0994         estimate D2E/DX2                !
 ! A76   A(38,39,40)           111.8574         estimate D2E/DX2                !
 ! A77   A(38,39,48)           109.5005         estimate D2E/DX2                !
 ! A78   A(38,39,49)           109.2502         estimate D2E/DX2                !
 ! A79   A(40,39,48)           107.9916         estimate D2E/DX2                !
 ! A80   A(40,39,49)           109.6392         estimate D2E/DX2                !
 ! A81   A(48,39,49)           108.5376         estimate D2E/DX2                !
 ! A82   A(39,40,41)           110.2541         estimate D2E/DX2                !
 ! A83   A(39,40,50)           108.9089         estimate D2E/DX2                !
 ! A84   A(39,40,51)           109.9032         estimate D2E/DX2                !
 ! A85   A(41,40,50)           109.0354         estimate D2E/DX2                !
 ! A86   A(41,40,51)           109.8651         estimate D2E/DX2                !
 ! A87   A(50,40,51)           108.8434         estimate D2E/DX2                !
 ! A88   A(40,41,42)           111.6235         estimate D2E/DX2                !
 ! A89   A(40,41,52)           108.8664         estimate D2E/DX2                !
 ! A90   A(40,41,53)           109.4316         estimate D2E/DX2                !
 ! A91   A(42,41,52)           108.6262         estimate D2E/DX2                !
 ! A92   A(42,41,53)           109.5583         estimate D2E/DX2                !
 ! A93   A(52,41,53)           108.6802         estimate D2E/DX2                !
 ! A94   A(41,42,43)           110.5855         estimate D2E/DX2                !
 ! A95   A(41,42,54)           109.0713         estimate D2E/DX2                !
 ! A96   A(41,42,55)           109.5866         estimate D2E/DX2                !
 ! A97   A(43,42,54)           109.0624         estimate D2E/DX2                !
 ! A98   A(43,42,55)           109.6825         estimate D2E/DX2                !
 ! A99   A(54,42,55)           108.8221         estimate D2E/DX2                !
 ! A100  A(42,43,44)           111.2545         estimate D2E/DX2                !
 ! A101  A(42,43,56)           109.1182         estimate D2E/DX2                !
 ! A102  A(42,43,57)           109.3457         estimate D2E/DX2                !
 ! A103  A(44,43,56)           108.9459         estimate D2E/DX2                !
 ! A104  A(44,43,57)           109.4201         estimate D2E/DX2                !
 ! A105  A(56,43,57)           108.7144         estimate D2E/DX2                !
 ! A106  A(43,44,45)           111.0323         estimate D2E/DX2                !
 ! A107  A(43,44,58)           109.5912         estimate D2E/DX2                !
 ! A108  A(43,44,59)           109.7061         estimate D2E/DX2                !
 ! A109  A(45,44,58)           108.7165         estimate D2E/DX2                !
 ! A110  A(45,44,59)           108.9885         estimate D2E/DX2                !
 ! A111  A(58,44,59)           108.7648         estimate D2E/DX2                !
 ! A112  A(44,45,60)           110.3644         estimate D2E/DX2                !
 ! A113  A(44,45,61)           109.6316         estimate D2E/DX2                !
 ! A114  A(44,45,62)           110.3234         estimate D2E/DX2                !
 ! A115  A(60,45,61)           108.7253         estimate D2E/DX2                !
 ! A116  A(60,45,62)           109.1356         estimate D2E/DX2                !
 ! A117  A(61,45,62)           108.6204         estimate D2E/DX2                !
 ! D1    D(16,1,2,3)          -179.522          estimate D2E/DX2                !
 ! D2    D(16,1,2,7)             0.1042         estimate D2E/DX2                !
 ! D3    D(2,1,16,8)            -0.2333         estimate D2E/DX2                !
 ! D4    D(2,1,16,15)          179.2179         estimate D2E/DX2                !
 ! D5    D(1,2,3,4)            179.3417         estimate D2E/DX2                !
 ! D6    D(1,2,3,17)             0.0818         estimate D2E/DX2                !
 ! D7    D(7,2,3,4)             -0.2487         estimate D2E/DX2                !
 ! D8    D(7,2,3,17)          -179.5086         estimate D2E/DX2                !
 ! D9    D(1,2,7,6)           -179.6585         estimate D2E/DX2                !
 ! D10   D(1,2,7,8)              0.051          estimate D2E/DX2                !
 ! D11   D(3,2,7,6)             -0.0047         estimate D2E/DX2                !
 ! D12   D(3,2,7,8)            179.7048         estimate D2E/DX2                !
 ! D13   D(2,3,4,5)              0.2795         estimate D2E/DX2                !
 ! D14   D(2,3,4,23)          -179.4646         estimate D2E/DX2                !
 ! D15   D(17,3,4,5)           179.4898         estimate D2E/DX2                !
 ! D16   D(17,3,4,23)           -0.2543         estimate D2E/DX2                !
 ! D17   D(3,4,5,6)             -0.0718         estimate D2E/DX2                !
 ! D18   D(3,4,5,18)           179.5738         estimate D2E/DX2                !
 ! D19   D(23,4,5,6)           179.6726         estimate D2E/DX2                !
 ! D20   D(23,4,5,18)           -0.6817         estimate D2E/DX2                !
 ! D21   D(3,4,23,24)           -6.8443         estimate D2E/DX2                !
 ! D22   D(3,4,23,25)          172.9825         estimate D2E/DX2                !
 ! D23   D(5,4,23,24)          173.4213         estimate D2E/DX2                !
 ! D24   D(5,4,23,25)           -6.752          estimate D2E/DX2                !
 ! D25   D(4,5,6,7)             -0.1736         estimate D2E/DX2                !
 ! D26   D(4,5,6,19)          -179.9668         estimate D2E/DX2                !
 ! D27   D(18,5,6,7)          -179.8429         estimate D2E/DX2                !
 ! D28   D(18,5,6,19)            0.364          estimate D2E/DX2                !
 ! D29   D(5,6,7,2)              0.2143         estimate D2E/DX2                !
 ! D30   D(5,6,7,8)           -179.4438         estimate D2E/DX2                !
 ! D31   D(19,6,7,2)          -179.9933         estimate D2E/DX2                !
 ! D32   D(19,6,7,8)             0.3486         estimate D2E/DX2                !
 ! D33   D(2,7,8,9)           -179.7203         estimate D2E/DX2                !
 ! D34   D(2,7,8,16)            -0.2342         estimate D2E/DX2                !
 ! D35   D(6,7,8,9)             -0.0357         estimate D2E/DX2                !
 ! D36   D(6,7,8,16)           179.4504         estimate D2E/DX2                !
 ! D37   D(7,8,9,10)           179.1877         estimate D2E/DX2                !
 ! D38   D(16,8,9,10)           -0.3101         estimate D2E/DX2                !
 ! D39   D(7,8,16,1)             0.3101         estimate D2E/DX2                !
 ! D40   D(7,8,16,15)         -179.2665         estimate D2E/DX2                !
 ! D41   D(9,8,16,1)           179.9165         estimate D2E/DX2                !
 ! D42   D(9,8,16,15)            0.3398         estimate D2E/DX2                !
 ! D43   D(8,9,10,11)         -179.367          estimate D2E/DX2                !
 ! D44   D(8,9,10,15)            0.2079         estimate D2E/DX2                !
 ! D45   D(9,10,11,12)         179.066          estimate D2E/DX2                !
 ! D46   D(9,10,11,20)          -0.5385         estimate D2E/DX2                !
 ! D47   D(15,10,11,12)         -0.4695         estimate D2E/DX2                !
 ! D48   D(15,10,11,20)        179.926          estimate D2E/DX2                !
 ! D49   D(9,10,15,14)        -179.7636         estimate D2E/DX2                !
 ! D50   D(9,10,15,16)          -0.0534         estimate D2E/DX2                !
 ! D51   D(11,10,15,14)         -0.1602         estimate D2E/DX2                !
 ! D52   D(11,10,15,16)        179.55           estimate D2E/DX2                !
 ! D53   D(10,11,12,13)          0.8187         estimate D2E/DX2                !
 ! D54   D(10,11,12,38)       -179.1278         estimate D2E/DX2                !
 ! D55   D(20,11,12,13)       -179.5836         estimate D2E/DX2                !
 ! D56   D(20,11,12,38)          0.4699         estimate D2E/DX2                !
 ! D57   D(11,12,13,14)         -0.5626         estimate D2E/DX2                !
 ! D58   D(11,12,13,21)        179.7891         estimate D2E/DX2                !
 ! D59   D(38,12,13,14)        179.3833         estimate D2E/DX2                !
 ! D60   D(38,12,13,21)         -0.2649         estimate D2E/DX2                !
 ! D61   D(11,12,38,39)         61.863          estimate D2E/DX2                !
 ! D62   D(11,12,38,46)        -59.0581         estimate D2E/DX2                !
 ! D63   D(11,12,38,47)       -177.5196         estimate D2E/DX2                !
 ! D64   D(13,12,38,39)       -118.0828         estimate D2E/DX2                !
 ! D65   D(13,12,38,46)        120.9961         estimate D2E/DX2                !
 ! D66   D(13,12,38,47)          2.5345         estimate D2E/DX2                !
 ! D67   D(12,13,14,15)         -0.0609         estimate D2E/DX2                !
 ! D68   D(12,13,14,22)       -179.6716         estimate D2E/DX2                !
 ! D69   D(21,13,14,15)        179.5922         estimate D2E/DX2                !
 ! D70   D(21,13,14,22)         -0.0184         estimate D2E/DX2                !
 ! D71   D(13,14,15,10)          0.424          estimate D2E/DX2                !
 ! D72   D(13,14,15,16)       -179.2314         estimate D2E/DX2                !
 ! D73   D(22,14,15,10)       -179.9671         estimate D2E/DX2                !
 ! D74   D(22,14,15,16)          0.3775         estimate D2E/DX2                !
 ! D75   D(10,15,16,1)        -179.6212         estimate D2E/DX2                !
 ! D76   D(10,15,16,8)          -0.1837         estimate D2E/DX2                !
 ! D77   D(14,15,16,1)           0.0616         estimate D2E/DX2                !
 ! D78   D(14,15,16,8)         179.4991         estimate D2E/DX2                !
 ! D79   D(4,23,24,26)         179.8364         estimate D2E/DX2                !
 ! D80   D(4,23,24,30)          -0.618          estimate D2E/DX2                !
 ! D81   D(25,23,24,26)          0.0018         estimate D2E/DX2                !
 ! D82   D(25,23,24,30)        179.5473         estimate D2E/DX2                !
 ! D83   D(4,23,25,27)        -179.6918         estimate D2E/DX2                !
 ! D84   D(4,23,25,29)          -0.2907         estimate D2E/DX2                !
 ! D85   D(24,23,25,27)          0.1428         estimate D2E/DX2                !
 ! D86   D(24,23,25,29)        179.544          estimate D2E/DX2                !
 ! D87   D(23,24,26,28)         -0.1862         estimate D2E/DX2                !
 ! D88   D(23,24,26,32)        179.8729         estimate D2E/DX2                !
 ! D89   D(30,24,26,28)       -179.7601         estimate D2E/DX2                !
 ! D90   D(30,24,26,32)          0.299          estimate D2E/DX2                !
 ! D91   D(23,25,27,28)         -0.107          estimate D2E/DX2                !
 ! D92   D(23,25,27,31)        179.91           estimate D2E/DX2                !
 ! D93   D(29,25,27,28)       -179.5468         estimate D2E/DX2                !
 ! D94   D(29,25,27,31)          0.4702         estimate D2E/DX2                !
 ! D95   D(24,26,28,27)          0.2216         estimate D2E/DX2                !
 ! D96   D(24,26,28,33)       -179.8515         estimate D2E/DX2                !
 ! D97   D(32,26,28,27)       -179.8377         estimate D2E/DX2                !
 ! D98   D(32,26,28,33)          0.0892         estimate D2E/DX2                !
 ! D99   D(25,27,28,26)         -0.077          estimate D2E/DX2                !
 ! D100  D(25,27,28,33)       -179.9988         estimate D2E/DX2                !
 ! D101  D(31,27,28,26)        179.9051         estimate D2E/DX2                !
 ! D102  D(31,27,28,33)         -0.0168         estimate D2E/DX2                !
 ! D103  D(26,28,33,34)        177.4413         estimate D2E/DX2                !
 ! D104  D(27,28,33,34)         -2.6362         estimate D2E/DX2                !
 ! D105  D(28,33,34,35)        119.9851         estimate D2E/DX2                !
 ! D106  D(28,33,34,36)         -1.3244         estimate D2E/DX2                !
 ! D107  D(28,33,34,37)       -121.836          estimate D2E/DX2                !
 ! D108  D(12,38,39,40)       -177.3487         estimate D2E/DX2                !
 ! D109  D(12,38,39,48)        -57.6719         estimate D2E/DX2                !
 ! D110  D(12,38,39,49)         61.0734         estimate D2E/DX2                !
 ! D111  D(46,38,39,40)        -57.307          estimate D2E/DX2                !
 ! D112  D(46,38,39,48)         62.3698         estimate D2E/DX2                !
 ! D113  D(46,38,39,49)       -178.885          estimate D2E/DX2                !
 ! D114  D(47,38,39,40)         60.889          estimate D2E/DX2                !
 ! D115  D(47,38,39,48)       -179.4342         estimate D2E/DX2                !
 ! D116  D(47,38,39,49)        -60.6889         estimate D2E/DX2                !
 ! D117  D(38,39,40,41)        177.9104         estimate D2E/DX2                !
 ! D118  D(38,39,40,50)         58.3144         estimate D2E/DX2                !
 ! D119  D(38,39,40,51)        -60.837          estimate D2E/DX2                !
 ! D120  D(48,39,40,41)         57.3508         estimate D2E/DX2                !
 ! D121  D(48,39,40,50)        -62.2452         estimate D2E/DX2                !
 ! D122  D(48,39,40,51)        178.6035         estimate D2E/DX2                !
 ! D123  D(49,39,40,41)        -60.736          estimate D2E/DX2                !
 ! D124  D(49,39,40,50)        179.668          estimate D2E/DX2                !
 ! D125  D(49,39,40,51)         60.5166         estimate D2E/DX2                !
 ! D126  D(39,40,41,42)       -177.3563         estimate D2E/DX2                !
 ! D127  D(39,40,41,52)        -57.4531         estimate D2E/DX2                !
 ! D128  D(39,40,41,53)         61.1973         estimate D2E/DX2                !
 ! D129  D(50,40,41,42)        -57.837          estimate D2E/DX2                !
 ! D130  D(50,40,41,52)         62.0662         estimate D2E/DX2                !
 ! D131  D(50,40,41,53)       -179.2833         estimate D2E/DX2                !
 ! D132  D(51,40,41,42)         61.3683         estimate D2E/DX2                !
 ! D133  D(51,40,41,52)       -178.7284         estimate D2E/DX2                !
 ! D134  D(51,40,41,53)        -60.078          estimate D2E/DX2                !
 ! D135  D(40,41,42,43)        178.296          estimate D2E/DX2                !
 ! D136  D(40,41,42,54)         58.3633         estimate D2E/DX2                !
 ! D137  D(40,41,42,55)        -60.672          estimate D2E/DX2                !
 ! D138  D(52,41,42,43)         58.2514         estimate D2E/DX2                !
 ! D139  D(52,41,42,54)        -61.6813         estimate D2E/DX2                !
 ! D140  D(52,41,42,55)        179.2834         estimate D2E/DX2                !
 ! D141  D(53,41,42,43)        -60.3311         estimate D2E/DX2                !
 ! D142  D(53,41,42,54)        179.7362         estimate D2E/DX2                !
 ! D143  D(53,41,42,55)         60.7009         estimate D2E/DX2                !
 ! D144  D(41,42,43,44)       -178.6217         estimate D2E/DX2                !
 ! D145  D(41,42,43,56)        -58.3874         estimate D2E/DX2                !
 ! D146  D(41,42,43,57)         60.4027         estimate D2E/DX2                !
 ! D147  D(54,42,43,44)        -58.6837         estimate D2E/DX2                !
 ! D148  D(54,42,43,56)         61.5507         estimate D2E/DX2                !
 ! D149  D(54,42,43,57)       -179.6592         estimate D2E/DX2                !
 ! D150  D(55,42,43,44)         60.4032         estimate D2E/DX2                !
 ! D151  D(55,42,43,56)       -179.3625         estimate D2E/DX2                !
 ! D152  D(55,42,43,57)        -60.5724         estimate D2E/DX2                !
 ! D153  D(42,43,44,45)        179.3216         estimate D2E/DX2                !
 ! D154  D(42,43,44,58)         59.2047         estimate D2E/DX2                !
 ! D155  D(42,43,44,59)        -60.147          estimate D2E/DX2                !
 ! D156  D(56,43,44,45)         58.9855         estimate D2E/DX2                !
 ! D157  D(56,43,44,58)        -61.1315         estimate D2E/DX2                !
 ! D158  D(56,43,44,59)        179.5169         estimate D2E/DX2                !
 ! D159  D(57,43,44,45)        -59.7465         estimate D2E/DX2                !
 ! D160  D(57,43,44,58)       -179.8634         estimate D2E/DX2                !
 ! D161  D(57,43,44,59)         60.7849         estimate D2E/DX2                !
 ! D162  D(43,44,45,60)         60.4881         estimate D2E/DX2                !
 ! D163  D(43,44,45,61)       -179.7781         estimate D2E/DX2                !
 ! D164  D(43,44,45,62)        -60.1991         estimate D2E/DX2                !
 ! D165  D(58,44,45,60)       -178.8767         estimate D2E/DX2                !
 ! D166  D(58,44,45,61)        -59.1428         estimate D2E/DX2                !
 ! D167  D(58,44,45,62)         60.4361         estimate D2E/DX2                !
 ! D168  D(59,44,45,60)        -60.467          estimate D2E/DX2                !
 ! D169  D(59,44,45,61)         59.2669         estimate D2E/DX2                !
 ! D170  D(59,44,45,62)        178.8458         estimate D2E/DX2                !
 --------------------------------------------------------------------------------
 Trust Radius=3.00D-01 FncErr=1.00D-07 GrdErr=1.00D-06 EigMax=2.50D+02 EigMin=1.00D-04
 Number of steps in this run=    363 maximum allowed number of steps=    372.
 GradGradGradGradGradGradGradGradGradGradGradGradGradGradGradGradGradGrad

 Stoichiometry    C29H30OS2
 Framework group  C1[X(C29H30OS2)]
 Deg. of freedom   180
 Full point group                 C1      NOp   1
 Largest Abelian subgroup         C1      NOp   1
 Largest concise Abelian subgroup C1      NOp   1
                         Standard orientation:                         
 ---------------------------------------------------------------------
 Center     Atomic      Atomic             Coordinates (Angstroms)
 Number     Number       Type             X           Y           Z
 ---------------------------------------------------------------------
      1         16           0        1.776186   -2.094572   -0.686331
      2          6           0        2.833206   -0.864785   -0.153554
      3          6           0        4.206036   -0.767880   -0.367094
      4          6           0        4.923246    0.350255    0.148777
      5          6           0        4.180763    1.329457    0.877879
      6          6           0        2.799193    1.207964    1.083852
      7          6           0        2.140579    0.105670    0.559360
      8          6           0        0.789229   -0.193261    0.640874
      9         16           0       -0.546443    0.560869    1.341393
     10          6           0       -1.609075   -0.653327    0.798780
     11          6           0       -2.982780   -0.718545    0.995003
     12          6           0       -3.698491   -1.804061    0.446075
     13          6           0       -3.003508   -2.807032   -0.273785
     14          6           0       -1.611418   -2.727597   -0.457707
     15          6           0       -0.928416   -1.638105    0.083310
     16          6           0        0.429493   -1.352164    0.011916
     17          1           0        4.668300   -1.556035   -0.935998
     18          1           0        4.638641    2.202062    1.309023
     19          1           0        2.258755    1.964160    1.639641
     20          1           0       -3.482667    0.060529    1.555832
     21          1           0       -3.540121   -3.646828   -0.697071
     22          1           0       -1.085860   -3.493991   -1.013159
     23          6           0        6.415631    0.499463   -0.071813
     24          6           0        7.182750   -0.527578   -0.671399
     25          6           0        7.108289    1.674699    0.308944
     26          6           0        8.557299   -0.383621   -0.875475
     27          6           0        8.483245    1.815570    0.100106
     28          6           0        9.225272    0.782163   -0.498324
     29          1           0        6.616013    2.515533    0.765424
     30          1           0        6.753101   -1.461651   -0.989580
     31          1           0        8.936073    2.741335    0.416645
     32          1           0        9.111102   -1.192903   -1.335756
     33          8           0       10.564039    0.844120   -0.734567
     34          6           0       11.445856    1.885278   -0.506838
     35          1           0       12.231087    1.545695    0.199249
     36          1           0       10.976246    2.794111   -0.092693
     37          1           0       11.930186    2.160870   -1.466065
     38          6           0       -5.194693   -1.884109    0.630489
     39          6           0       -5.889802   -0.681069   -0.024878
     40          6           0       -7.404975   -0.703458    0.203695
     41          6           0       -8.054587    0.538475   -0.420109
     42          6           0       -9.562887    0.580945   -0.153502
     43          6           0      -10.180516    1.851821   -0.750416
     44          6           0      -11.683681    1.926677   -0.463067
     45          6           0      -12.289763    3.200999   -1.044687
     46          1           0       -5.416246   -1.905054    1.719713
     47          1           0       -5.596013   -2.817662    0.178227
     48          1           0       -5.490954    0.260101    0.410414
     49          1           0       -5.676260   -0.684110   -1.116829
     50          1           0       -7.604461   -0.706282    1.298121
     51          1           0       -7.841779   -1.623358   -0.243430
     52          1           0       -7.589831    1.447949    0.021645
     53          1           0       -7.870083    0.541108   -1.517244
     54          1           0       -9.738204    0.573187    0.945081
     55          1           0      -10.045897   -0.315795   -0.600307
     56          1           0       -9.682921    2.742327   -0.305860
     57          1           0      -10.013233    1.861361   -1.850259
     58          1           0      -11.854027    1.919816    0.635774
     59          1           0      -12.194999    1.046396   -0.909717
     60          1           0      -12.152508    3.226280   -2.146722
     61          1           0      -13.376565    3.233403   -0.820030
     62          1           0      -11.808062    4.096672   -0.596989
 ---------------------------------------------------------------------
 Rotational constants (GHZ):           0.3957106           0.0255047           0.0244900
 Standard basis: CC-pVDZ (5D, 7F)
 There are   638 symmetry adapted cartesian basis functions of A   symmetry.
 There are   606 symmetry adapted basis functions of A   symmetry.
   606 basis functions,  1342 primitive gaussians,   638 cartesian basis functions
   122 alpha electrons      122 beta electrons
       nuclear repulsion energy      3016.1514882493 Hartrees.
 NAtoms=   62 NActive=   62 NUniq=   62 SFac= 1.00D+00 NAtFMM=   60 NAOKFM=T Big=T
 Integral buffers will be    131072 words long.
 Raffenetti 2 integral format.
 Two-electron integral symmetry is turned on.
 Nuclear repulsion after empirical dispersion term =     3016.1068212038 Hartrees.
 One-electron integrals computed using PRISM.
 NBasis=   606 RedAO= T EigKep=  1.58D-04  NBF=   606
 NBsUse=   606 1.00D-06 EigRej= -1.00D+00 NBFU=   606
 ExpMin= 1.22D-01 ExpMax= 1.11D+05 ExpMxC= 1.07D+03 IAcc=3 IRadAn=         5 AccDes= 0.00D+00
 Harris functional with IExCor= 4639 and IRadAn=       5 diagonalized for initial guess.
 HarFok:  IExCor= 4639 AccDes= 0.00D+00 IRadAn=         5 IDoV= 1 UseB2=F ITyADJ=14
 ICtDFT=  3500011 ScaDFX=  1.000000  1.000000  1.000000  1.000000
 FoFCou: FMM=F IPFlag=           0 FMFlag=      100000 FMFlg1=        2001
         NFxFlg=           0 DoJE=T BraDBF=F KetDBF=T FulRan=T
         wScrn=  0.000000 ICntrl=       500 IOpCl=  0 I1Cent=   200000004 NGrid=           0
         NMat0=    1 NMatS0=      1 NMatT0=    0 NMatD0=    1 NMtDS0=    0 NMtDT0=    0
 Petite list used in FoFCou.
 Requested convergence on RMS density matrix=1.00D-08 within 128 cycles.
 Requested convergence on MAX density matrix=1.00D-06.
 Requested convergence on             energy=1.00D-06.
 No special actions if energy rises.
 Integral accuracy reduced to 1.0D-05 until final iterations.
 Initial convergence to 1.0D-05 achieved.  Increase integral accuracy.
 SCF Done:  E(RwB97XD) =  -1994.45449520     A.U. after   17 cycles
            NFock= 17  Conv=0.69D-08     -V/T= 2.0049

 **********************************************************************

            Population analysis using the SCF Density.

 **********************************************************************

 Orbital symmetries:
       Occupied  (A) (A) (A) (A) (A) (A) (A) (A) (A) (A) (A) (A)
                 (A) (A) (A) (A) (A) (A) (A) (A) (A) (A) (A) (A)
                 (A) (A) (A) (A) (A) (A) (A) (A) (A) (A) (A) (A)
                 (A) (A) (A) (A) (A) (A) (A) (A) (A) (A) (A) (A)
                 (A) (A) (A) (A) (A) (A) (A) (A) (A) (A) (A) (A)
                 (A) (A) (A) (A) (A) (A) (A) (A) (A) (A) (A) (A)
                 (A) (A) (A) (A) (A) (A) (A) (A) (A) (A) (A) (A)
                 (A) (A) (A) (A) (A) (A) (A) (A) (A) (A) (A) (A)
                 (A) (A) (A) (A) (A) (A) (A) (A) (A) (A) (A) (A)
                 (A) (A) (A) (A) (A) (A) (A) (A) (A) (A) (A) (A)
                 (A) (A)
       Virtual   (A) (A) (A) (A) (A) (A) (A) (A) (A) (A) (A) (A)
                 (A) (A) (A) (A) (A) (A) (A) (A) (A) (A) (A) (A)
                 (A) (A) (A) (A) (A) (A) (A) (A) (A) (A) (A) (A)
                 (A) (A) (A) (A) (A) (A) (A) (A) (A) (A) (A) (A)
                 (A) (A) (A) (A) (A) (A) (A) (A) (A) (A) (A) (A)
                 (A) (A) (A) (A) (A) (A) (A) (A) (A) (A) (A) (A)
                 (A) (A) (A) (A) (A) (A) (A) (A) (A) (A) (A) (A)
                 (A) (A) (A) (A) (A) (A) (A) (A) (A) (A) (A) (A)
                 (A) (A) (A) (A) (A) (A) (A) (A) (A) (A) (A) (A)
                 (A) (A) (A) (A) (A) (A) (A) (A) (A) (A) (A) (A)
                 (A) (A) (A) (A) (A) (A) (A) (A) (A) (A) (A) (A)
                 (A) (A) (A) (A) (A) (A) (A) (A) (A) (A) (A) (A)
                 (A) (A) (A) (A) (A) (A) (A) (A) (A) (A) (A) (A)
                 (A) (A) (A) (A) (A) (A) (A) (A) (A) (A) (A) (A)
                 (A) (A) (A) (A) (A) (A) (A) (A) (A) (A) (A) (A)
                 (A) (A) (A) (A) (A) (A) (A) (A) (A) (A) (A) (A)
                 (A) (A) (A) (A) (A) (A) (A) (A) (A) (A) (A) (A)
                 (A) (A) (A) (A) (A) (A) (A) (A) (A) (A) (A) (A)
                 (A) (A) (A) (A) (A) (A) (A) (A) (A) (A) (A) (A)
                 (A) (A) (A) (A) (A) (A) (A) (A) (A) (A) (A) (A)
                 (A) (A) (A) (A) (A) (A) (A) (A) (A) (A) (A) (A)
                 (A) (A) (A) (A) (A) (A) (A) (A) (A) (A) (A) (A)
                 (A) (A) (A) (A) (A) (A) (A) (A) (A) (A) (A) (A)
                 (A) (A) (A) (A) (A) (A) (A) (A) (A) (A) (A) (A)
                 (A) (A) (A) (A) (A) (A) (A) (A) (A) (A) (A) (A)
                 (A) (A) (A) (A) (A) (A) (A) (A) (A) (A) (A) (A)
                 (A) (A) (A) (A) (A) (A) (A) (A) (A) (A) (A) (A)
                 (A) (A) (A) (A) (A) (A) (A) (A) (A) (A) (A) (A)
                 (A) (A) (A) (A) (A) (A) (A) (A) (A) (A) (A) (A)
                 (A) (A) (A) (A) (A) (A) (A) (A) (A) (A) (A) (A)
                 (A) (A) (A) (A) (A) (A) (A) (A) (A) (A) (A) (A)
                 (A) (A) (A) (A) (A) (A) (A) (A) (A) (A) (A) (A)
                 (A) (A) (A) (A) (A) (A) (A) (A) (A) (A) (A) (A)
                 (A) (A) (A) (A) (A) (A) (A) (A) (A) (A) (A) (A)
                 (A) (A) (A) (A) (A) (A) (A) (A) (A) (A) (A) (A)
                 (A) (A) (A) (A) (A) (A) (A) (A) (A) (A) (A) (A)
                 (A) (A) (A) (A) (A) (A) (A) (A) (A) (A) (A) (A)
                 (A) (A) (A) (A) (A) (A) (A) (A) (A) (A) (A) (A)
                 (A) (A) (A) (A) (A) (A) (A) (A) (A) (A) (A) (A)
                 (A) (A) (A) (A) (A) (A) (A) (A) (A) (A) (A) (A)
                 (A) (A) (A) (A)
 The electronic state is 1-A.
 Alpha  occ. eigenvalues --  -89.06542 -89.06472 -19.29300 -10.36907 -10.35949
 Alpha  occ. eigenvalues --  -10.33190 -10.33185 -10.32616 -10.32183 -10.32039
 Alpha  occ. eigenvalues --  -10.31507 -10.31458 -10.31240 -10.31062 -10.30885
 Alpha  occ. eigenvalues --  -10.30870 -10.30860 -10.30840 -10.30788 -10.30759
 Alpha  occ. eigenvalues --  -10.30614 -10.30397 -10.30280 -10.30257 -10.29922
 Alpha  occ. eigenvalues --  -10.29672 -10.29330 -10.29153 -10.29084 -10.29035
 Alpha  occ. eigenvalues --  -10.28980 -10.28659  -8.08768  -8.08723  -6.03634
 Alpha  occ. eigenvalues --   -6.03586  -6.03249  -6.03204  -6.02783  -6.02739
 Alpha  occ. eigenvalues --   -1.17632  -1.04001  -0.99059  -0.96290  -0.94372
 Alpha  occ. eigenvalues --   -0.92736  -0.91336  -0.89826  -0.88477  -0.87290
 Alpha  occ. eigenvalues --   -0.86505  -0.85219  -0.84662  -0.83276  -0.82308
 Alpha  occ. eigenvalues --   -0.79925  -0.79553  -0.77651  -0.74714  -0.72166
 Alpha  occ. eigenvalues --   -0.71944  -0.70451  -0.69277  -0.68293  -0.67058
 Alpha  occ. eigenvalues --   -0.66583  -0.66157  -0.66034  -0.65592  -0.63338
 Alpha  occ. eigenvalues --   -0.59707  -0.59120  -0.58627  -0.57541  -0.56893
 Alpha  occ. eigenvalues --   -0.56014  -0.55948  -0.55315  -0.54244  -0.53746
 Alpha  occ. eigenvalues --   -0.53264  -0.53037  -0.52461  -0.52203  -0.51550
 Alpha  occ. eigenvalues --   -0.51315  -0.51268  -0.50362  -0.50043  -0.49209
 Alpha  occ. eigenvalues --   -0.48512  -0.48295  -0.47580  -0.47334  -0.46968
 Alpha  occ. eigenvalues --   -0.46455  -0.45854  -0.44827  -0.44257  -0.43730
 Alpha  occ. eigenvalues --   -0.43298  -0.42959  -0.42845  -0.42448  -0.41890
 Alpha  occ. eigenvalues --   -0.41317  -0.41187  -0.40937  -0.40798  -0.40534
 Alpha  occ. eigenvalues --   -0.40418  -0.40261  -0.40148  -0.39810  -0.37181
 Alpha  occ. eigenvalues --   -0.36306  -0.35037  -0.33308  -0.31576  -0.30180
 Alpha  occ. eigenvalues --   -0.28069  -0.25709
 Alpha virt. eigenvalues --    0.00592   0.04755   0.05196   0.06330   0.07050
 Alpha virt. eigenvalues --    0.09492   0.10847   0.12152   0.13336   0.13638
 Alpha virt. eigenvalues --    0.13813   0.14251   0.14839   0.15220   0.15471
 Alpha virt. eigenvalues --    0.15666   0.15945   0.16378   0.16753   0.17406
 Alpha virt. eigenvalues --    0.18158   0.18439   0.18919   0.19789   0.20132
 Alpha virt. eigenvalues --    0.20668   0.20729   0.21385   0.21529   0.21674
 Alpha virt. eigenvalues --    0.22144   0.22577   0.23275   0.23638   0.23741
 Alpha virt. eigenvalues --    0.24154   0.24234   0.24868   0.25361   0.25891
 Alpha virt. eigenvalues --    0.26609   0.26807   0.27075   0.28020   0.28805
 Alpha virt. eigenvalues --    0.28881   0.29154   0.29315   0.30031   0.30775
 Alpha virt. eigenvalues --    0.31178   0.31862   0.31998   0.32899   0.33613
 Alpha virt. eigenvalues --    0.34673   0.35689   0.35825   0.37007   0.37686
 Alpha virt. eigenvalues --    0.38325   0.38469   0.39318   0.39955   0.41239
 Alpha virt. eigenvalues --    0.42793   0.43295   0.45475   0.46104   0.46632
 Alpha virt. eigenvalues --    0.47315   0.48851   0.49116   0.49570   0.49934
 Alpha virt. eigenvalues --    0.50203   0.50832   0.51734   0.51786   0.51973
 Alpha virt. eigenvalues --    0.52260   0.52456   0.52793   0.53598   0.53929
 Alpha virt. eigenvalues --    0.54072   0.54397   0.55154   0.55277   0.55965
 Alpha virt. eigenvalues --    0.56085   0.56190   0.56305   0.56432   0.56764
 Alpha virt. eigenvalues --    0.57283   0.57814   0.57967   0.58206   0.58242
 Alpha virt. eigenvalues --    0.58771   0.59059   0.59265   0.59489   0.60179
 Alpha virt. eigenvalues --    0.60460   0.60568   0.60868   0.61008   0.61115
 Alpha virt. eigenvalues --    0.61279   0.61820   0.62018   0.62557   0.62587
 Alpha virt. eigenvalues --    0.62915   0.63309   0.64575   0.65162   0.65766
 Alpha virt. eigenvalues --    0.66417   0.67115   0.67226   0.67410   0.68868
 Alpha virt. eigenvalues --    0.68943   0.69525   0.69891   0.70418   0.70661
 Alpha virt. eigenvalues --    0.71055   0.71330   0.71634   0.71959   0.72024
 Alpha virt. eigenvalues --    0.72347   0.72373   0.72562   0.73414   0.73621
 Alpha virt. eigenvalues --    0.74070   0.74315   0.74645   0.74790   0.75023
 Alpha virt. eigenvalues --    0.75037   0.75144   0.75261   0.75398   0.75505
 Alpha virt. eigenvalues --    0.75902   0.76210   0.76432   0.76637   0.77020
 Alpha virt. eigenvalues --    0.77215   0.77342   0.78025   0.78397   0.78769
 Alpha virt. eigenvalues --    0.78901   0.79226   0.79873   0.79998   0.80332
 Alpha virt. eigenvalues --    0.80431   0.80597   0.81048   0.81487   0.81989
 Alpha virt. eigenvalues --    0.82505   0.82625   0.83173   0.83586   0.83992
 Alpha virt. eigenvalues --    0.85072   0.86581   0.87619   0.87735   0.88430
 Alpha virt. eigenvalues --    0.89697   0.91511   0.92216   0.92776   0.93120
 Alpha virt. eigenvalues --    0.94569   0.95243   0.95727   0.96684   0.96964
 Alpha virt. eigenvalues --    0.97290   0.97638   0.98158   0.98176   0.98886
 Alpha virt. eigenvalues --    0.99316   0.99481   1.00044   1.00624   1.01504
 Alpha virt. eigenvalues --    1.02587   1.03277   1.04361   1.04528   1.05782
 Alpha virt. eigenvalues --    1.06627   1.06748   1.07292   1.08152   1.08487
 Alpha virt. eigenvalues --    1.08777   1.09252   1.09490   1.09703   1.10933
 Alpha virt. eigenvalues --    1.11342   1.12091   1.12597   1.13198   1.14281
 Alpha virt. eigenvalues --    1.14469   1.15209   1.15848   1.16481   1.16970
 Alpha virt. eigenvalues --    1.18006   1.18325   1.20077   1.20435   1.20866
 Alpha virt. eigenvalues --    1.21233   1.23272   1.24509   1.26015   1.26337
 Alpha virt. eigenvalues --    1.27682   1.28400   1.28917   1.29207   1.29676
 Alpha virt. eigenvalues --    1.29953   1.30191   1.30287   1.31055   1.31215
 Alpha virt. eigenvalues --    1.32013   1.32123   1.33799   1.34116   1.34868
 Alpha virt. eigenvalues --    1.35632   1.36155   1.37557   1.37832   1.37997
 Alpha virt. eigenvalues --    1.38603   1.38847   1.41070   1.41511   1.41674
 Alpha virt. eigenvalues --    1.42396   1.43553   1.44333   1.45688   1.47654
 Alpha virt. eigenvalues --    1.47876   1.48514   1.49870   1.49994   1.50458
 Alpha virt. eigenvalues --    1.52778   1.53360   1.53701   1.54728   1.54931
 Alpha virt. eigenvalues --    1.55105   1.55229   1.56044   1.56197   1.56560
 Alpha virt. eigenvalues --    1.57060   1.57431   1.58155   1.59408   1.59631
 Alpha virt. eigenvalues --    1.60297   1.60445   1.62628   1.63946   1.64299
 Alpha virt. eigenvalues --    1.64342   1.65658   1.65759   1.66372   1.67517
 Alpha virt. eigenvalues --    1.67749   1.67769   1.68081   1.68978   1.69564
 Alpha virt. eigenvalues --    1.69915   1.70129   1.70394   1.70776   1.71038
 Alpha virt. eigenvalues --    1.71113   1.71495   1.71632   1.72399   1.72601
 Alpha virt. eigenvalues --    1.72780   1.73280   1.73602   1.74020   1.74168
 Alpha virt. eigenvalues --    1.74230   1.74896   1.75030   1.75492   1.75779
 Alpha virt. eigenvalues --    1.76180   1.76452   1.76916   1.77853   1.78068
 Alpha virt. eigenvalues --    1.78421   1.78863   1.79154   1.79320   1.79603
 Alpha virt. eigenvalues --    1.79976   1.80594   1.80722   1.81165   1.81418
 Alpha virt. eigenvalues --    1.81592   1.81928   1.82357   1.82904   1.83528
 Alpha virt. eigenvalues --    1.83732   1.84001   1.84208   1.84760   1.85061
 Alpha virt. eigenvalues --    1.85660   1.86116   1.86597   1.86925   1.87193
 Alpha virt. eigenvalues --    1.88093   1.88838   1.89168   1.89659   1.90144
 Alpha virt. eigenvalues --    1.90753   1.91218   1.91824   1.92757   1.93347
 Alpha virt. eigenvalues --    1.94039   1.94203   1.94824   1.95321   1.95743
 Alpha virt. eigenvalues --    1.96392   1.97666   1.99065   1.99564   2.00021
 Alpha virt. eigenvalues --    2.00834   2.01474   2.01641   2.02297   2.02800
 Alpha virt. eigenvalues --    2.03068   2.03840   2.05388   2.05747   2.06322
 Alpha virt. eigenvalues --    2.06657   2.07295   2.08074   2.09040   2.09324
 Alpha virt. eigenvalues --    2.10705   2.11068   2.11556   2.12471   2.13866
 Alpha virt. eigenvalues --    2.14401   2.14833   2.15201   2.15686   2.16977
 Alpha virt. eigenvalues --    2.17592   2.17739   2.18856   2.20028   2.20862
 Alpha virt. eigenvalues --    2.21601   2.23414   2.24321   2.24619   2.25269
 Alpha virt. eigenvalues --    2.25622   2.26398   2.27238   2.27941   2.29496
 Alpha virt. eigenvalues --    2.29891   2.30740   2.30988   2.31943   2.33391
 Alpha virt. eigenvalues --    2.34297   2.35356   2.36016   2.36744   2.37180
 Alpha virt. eigenvalues --    2.37426   2.38088   2.38351   2.39713   2.40263
 Alpha virt. eigenvalues --    2.40890   2.41342   2.41781   2.43005   2.43395
 Alpha virt. eigenvalues --    2.44861   2.45087   2.45245   2.46595   2.47141
 Alpha virt. eigenvalues --    2.48312   2.48814   2.49832   2.50465   2.51475
 Alpha virt. eigenvalues --    2.52661   2.52846   2.53922   2.54233   2.55853
 Alpha virt. eigenvalues --    2.56014   2.58105   2.58720   2.60395   2.60946
 Alpha virt. eigenvalues --    2.63393   2.64504   2.65628   2.66760   2.67480
 Alpha virt. eigenvalues --    2.67808   2.69351   2.70433   2.72703   2.73650
 Alpha virt. eigenvalues --    2.75323   2.77028   2.77875   2.79877   2.82890
 Alpha virt. eigenvalues --    2.83247   2.84263   2.84838   2.86344   2.87265
 Alpha virt. eigenvalues --    2.88828   2.91521   2.94073   2.96478   2.97742
 Alpha virt. eigenvalues --    3.04775   3.09088   3.11439   3.15879   3.31369
 Alpha virt. eigenvalues --    3.47964   3.50316   3.55866   3.72991
          Condensed to atoms (all electrons):
 Mulliken charges:
               1
     1  S    0.106601
     2  C   -0.202992
     3  C    0.022736
     4  C    0.053173
     5  C   -0.021252
     6  C   -0.021232
     7  C    0.178495
     8  C   -0.104108
     9  S    0.104134
    10  C   -0.183911
    11  C    0.042040
    12  C   -0.072219
    13  C    0.000037
    14  C   -0.029432
    15  C    0.164037
    16  C   -0.114873
    17  H   -0.016746
    18  H   -0.010886
    19  H   -0.007179
    20  H   -0.013530
    21  H   -0.012164
    22  H   -0.006705
    23  C    0.026359
    24  C   -0.015360
    25  C   -0.020784
    26  C    0.013765
    27  C   -0.024102
    28  C    0.148909
    29  H   -0.012332
    30  H   -0.006888
    31  H   -0.001866
    32  H    0.005014
    33  O   -0.304905
    34  C    0.070068
    35  H    0.054512
    36  H    0.038544
    37  H    0.054968
    38  C    0.038933
    39  C   -0.062863
    40  C   -0.050683
    41  C   -0.060690
    42  C   -0.051575
    43  C   -0.064510
    44  C   -0.090897
    45  C   -0.067613
    46  H    0.044738
    47  H    0.025509
    48  H    0.030485
    49  H    0.034493
    50  H    0.026768
    51  H    0.028962
    52  H    0.027307
    53  H    0.029607
    54  H    0.026262
    55  H    0.027488
    56  H    0.026410
    57  H    0.027362
    58  H    0.030186
    59  H    0.030471
    60  H    0.038871
    61  H    0.036455
    62  H    0.038595
 Sum of Mulliken charges =  -0.00000
 Mulliken charges with hydrogens summed into heavy atoms:
               1
     1  S    0.106601
     2  C   -0.202992
     3  C    0.005990
     4  C    0.053173
     5  C   -0.032138
     6  C   -0.028410
     7  C    0.178495
     8  C   -0.104108
     9  S    0.104134
    10  C   -0.183911
    11  C    0.028510
    12  C   -0.072219
    13  C   -0.012127
    14  C   -0.036137
    15  C    0.164037
    16  C   -0.114873
    23  C    0.026359
    24  C   -0.022248
    25  C   -0.033115
    26  C    0.018779
    27  C   -0.025967
    28  C    0.148909
    33  O   -0.304905
    34  C    0.218093
    38  C    0.109179
    39  C    0.002114
    40  C    0.005047
    41  C   -0.003775
    42  C    0.002174
    43  C   -0.010739
    44  C   -0.030240
    45  C    0.046308
 Electronic spatial extent (au):  <R**2>=          41989.6193
 Charge=             -0.0000 electrons
 Dipole moment (field-independent basis, Debye):
    X=              0.5253    Y=              1.2571    Z=              0.1642  Tot=              1.3723
 Quadrupole moment (field-independent basis, Debye-Ang):
   XX=           -159.4602   YY=           -193.7266   ZZ=           -207.3943
   XY=             19.7645   XZ=             -0.3798   YZ=              9.2885
 Traceless Quadrupole moment (field-independent basis, Debye-Ang):
   XX=             27.4001   YY=             -6.8663   ZZ=            -20.5339
   XY=             19.7645   XZ=             -0.3798   YZ=              9.2885
 Octapole moment (field-independent basis, Debye-Ang**2):
  XXX=            452.4632  YYY=              8.2838  ZZZ=             -6.4017  XYY=             81.3168
  XXY=            157.7525  XXZ=              6.4045  XZZ=            -13.9425  YZZ=              5.4080
  YYZ=             -5.5696  XYZ=              9.1803
 Hexadecapole moment (field-independent basis, Debye-Ang**3):
 XXXX=         -47785.2278 YYYY=          -3081.2249 ZZZZ=           -874.9909 XXXY=           2506.6987
 XXXZ=            -99.6576 YYYX=            278.8702 YYYZ=             93.1027 ZZZX=            -33.3485
 ZZZY=              6.6689 XXYY=          -8903.4734 XXZZ=          -9164.2284 YYZZ=           -667.0808
 XXYZ=            258.5693 YYXZ=            -14.7303 ZZXY=              1.2671
 N-N= 3.016106821204D+03 E-N=-1.070357760921D+04  KE= 1.984784957358D+03
 Calling FoFJK, ICntrl=      2127 FMM=T ISym2X=0 I1Cent= 0 IOpClX= 0 NMat=1 NMatS=1 NMatT=0.
 ***** Axes restored to original set *****
 -------------------------------------------------------------------
 Center     Atomic                   Forces (Hartrees/Bohr)
 Number     Number              X              Y              Z
 -------------------------------------------------------------------
      1       16          -0.052568259   -0.004841886   -0.004186936
      2        6           0.005273075   -0.021969379   -0.002134852
      3        6           0.022788188   -0.009167821   -0.000169491
      4        6          -0.007190309    0.002995860   -0.000148926
      5        6          -0.012575105    0.019109640    0.001946207
      6        6          -0.004617265   -0.032705190   -0.004725603
      7        6           0.023389627   -0.016390884   -0.000160055
      8        6          -0.013892569    0.018840290    0.001545968
      9       16           0.052623214    0.003755112    0.004135508
     10        6          -0.005385110    0.019805572    0.001679343
     11        6          -0.018746981    0.009044717   -0.000562154
     12        6           0.000019346   -0.009069193    0.003454123
     13        6           0.010488962   -0.021599586   -0.002269356
     14        6           0.007138368    0.029146546    0.003074760
     15        6          -0.025755875    0.022273569    0.000750842
     16        6           0.013561832   -0.019496251   -0.001014975
     17        1          -0.007304288   -0.008464197   -0.001807971
     18        1           0.005200039   -0.010747844   -0.000759620
     19        1           0.005223916    0.001723106    0.000660799
     20        1           0.005256597    0.004143681    0.001207862
     21        1          -0.003648394    0.005455848    0.000402868
     22        1          -0.005335875   -0.002644195   -0.000542531
     23        6           0.002003651    0.007578636    0.000927767
     24        6           0.019500011   -0.012853596   -0.002491668
     25        6          -0.022527715   -0.005386757    0.000014953
     26        6           0.001287375    0.007589615    0.000789837
     27        6          -0.010649492    0.009123906    0.002189741
     28        6           0.022056084   -0.007876030   -0.002965137
     29        1           0.007702674    0.007797248    0.000570990
     30        1          -0.006026466    0.008550119    0.001879868
     31        1           0.005456053   -0.007495399   -0.001430727
     32        1          -0.003867671   -0.004276894   -0.000418663
     33        8          -0.031563206    0.016964068    0.005341950
     34        6           0.017109768   -0.008144623   -0.003224371
     35        1           0.000823814    0.003486239   -0.003471781
     36        1          -0.001155313    0.000278414    0.000509173
     37        1           0.001025157    0.002246990    0.004343268
     38        6           0.001122633   -0.001992663   -0.003257738
     39        6          -0.001845538    0.007048321    0.006970759
     40        6           0.003846186   -0.007057469   -0.008478641
     41        6          -0.004119219    0.006766962    0.009871829
     42        6           0.004201307   -0.007497777   -0.009619700
     43        6          -0.003888047    0.008050685    0.009973736
     44        6           0.003511354   -0.002748488   -0.006566694
     45        6           0.001353383    0.006236090    0.001073230
     46        1          -0.002992107    0.002023713   -0.005089541
     47        1           0.005932747   -0.004425125    0.002428116
     48        1          -0.005980329    0.000894004   -0.002659956
     49        1           0.004890214   -0.001072733    0.004942402
     50        1          -0.005107497    0.001259232   -0.003696542
     51        1           0.005477044   -0.001750384    0.002281781
     52        1          -0.005712756    0.001664520   -0.002817239
     53        1           0.004827138   -0.000831089    0.004144501
     54        1          -0.004998823    0.001246765   -0.003910475
     55        1           0.005425319   -0.001952129    0.002408215
     56        1          -0.005413961    0.001999757   -0.002750632
     57        1           0.004771452   -0.000950141    0.003929143
     58        1          -0.005918369    0.000125217   -0.003215541
     59        1           0.004447909   -0.003161158    0.003488933
     60        1           0.005052600    0.000915304    0.004203706
     61        1           0.000789557   -0.005786558   -0.004314879
     62        1          -0.004790057    0.004215695   -0.002279788
 -------------------------------------------------------------------
 Cartesian Forces:  Max     0.052623214 RMS     0.010384149

 GradGradGradGradGradGradGradGradGradGradGradGradGradGradGradGradGradGrad
 Berny optimization.
 FormGI is forming the generalized inverse of G from B-inverse, IUseBI=4.
 Internal  Forces:  Max     0.041483768 RMS     0.006864299
 Search for a local minimum.
 Step number   1 out of a maximum of  363
 All quantities printed in internal units (Hartrees-Bohrs-Radians)
 Mixed Optimization -- RFO/linear search
 Second derivative matrix not updated -- first step.
 ITU=  0
     Eigenvalues ---    0.00287   0.00315   0.00317   0.00336   0.00339
     Eigenvalues ---    0.00340   0.00418   0.00555   0.00638   0.01382
     Eigenvalues ---    0.01410   0.01465   0.01789   0.01871   0.01911
     Eigenvalues ---    0.01913   0.01917   0.01940   0.01957   0.01976
     Eigenvalues ---    0.01995   0.02003   0.02006   0.02049   0.02051
     Eigenvalues ---    0.02058   0.02068   0.02081   0.02086   0.02105
     Eigenvalues ---    0.02110   0.02110   0.02131   0.02138   0.02166
     Eigenvalues ---    0.02175   0.02194   0.02209   0.02229   0.02241
     Eigenvalues ---    0.02303   0.03636   0.03675   0.03713   0.03776
     Eigenvalues ---    0.03777   0.03804   0.04298   0.04869   0.04892
     Eigenvalues ---    0.04900   0.04918   0.04927   0.04938   0.05456
     Eigenvalues ---    0.05670   0.05773   0.07848   0.07902   0.08004
     Eigenvalues ---    0.08013   0.08072   0.08107   0.09037   0.10067
     Eigenvalues ---    0.10630   0.11842   0.11883   0.11951   0.11967
     Eigenvalues ---    0.12014   0.12041   0.12611   0.15999   0.15999
     Eigenvalues ---    0.16000   0.16000   0.16000   0.16000   0.16000
     Eigenvalues ---    0.16000   0.16000   0.16000   0.16000   0.16000
     Eigenvalues ---    0.16000   0.16000   0.16000   0.16000   0.21942
     Eigenvalues ---    0.21949   0.21956   0.21958   0.21962   0.21968
     Eigenvalues ---    0.21969   0.22000   0.22451   0.22459   0.22953
     Eigenvalues ---    0.23508   0.23516   0.24000   0.24633   0.24637
     Eigenvalues ---    0.24996   0.24999   0.24999   0.25000   0.25000
     Eigenvalues ---    0.25000   0.25000   0.25000   0.25000   0.28856
     Eigenvalues ---    0.29046   0.29065   0.29196   0.29215   0.29220
     Eigenvalues ---    0.29770   0.30759   0.31386   0.32307   0.32310
     Eigenvalues ---    0.32322   0.32332   0.32333   0.32336   0.32341
     Eigenvalues ---    0.32362   0.32364   0.32371   0.32391   0.32418
     Eigenvalues ---    0.32423   0.32476   0.32493   0.32512   0.32573
     Eigenvalues ---    0.32670   0.32678   0.33282   0.33598   0.34565
     Eigenvalues ---    0.35601   0.35639   0.35662   0.35678   0.35718
     Eigenvalues ---    0.35726   0.36030   0.36225   0.36439   0.36450
     Eigenvalues ---    0.36486   0.36528   0.39031   0.39922   0.40131
     Eigenvalues ---    0.40533   0.40818   0.41202   0.42844   0.43457
     Eigenvalues ---    0.43852   0.44047   0.44423   0.44431   0.45546
     Eigenvalues ---    0.45786   0.45957   0.46057   0.46192   0.46386
     Eigenvalues ---    0.46872   0.47146   0.48507   0.48758   0.52774
 RFO step:  Lambda=-4.30374355D-02 EMin= 2.86759116D-03
 Linear search not attempted -- first point.
 Maximum step size (   0.300) exceeded in Quadratic search.
    -- Step size scaled by   0.892
 Iteration  1 RMS(Cart)=  0.12924729 RMS(Int)=  0.00100898
 Iteration  2 RMS(Cart)=  0.00328262 RMS(Int)=  0.00005852
 Iteration  3 RMS(Cart)=  0.00000136 RMS(Int)=  0.00005851
 Iteration  4 RMS(Cart)=  0.00000000 RMS(Int)=  0.00005851
 Variable       Old X    -DE/DX   Delta X   Delta X   Delta X     New X
                                 (Linear)    (Quad)   (Total)
    R1        3.22558   0.02924   0.00000   0.06430   0.06433   3.28991
    R2        3.19151   0.03549   0.00000   0.07445   0.07448   3.26599
    R3        2.63185   0.00262   0.00000   0.00556   0.00555   2.63740
    R4        2.62513   0.02216   0.00000   0.04191   0.04191   2.66704
    R5        2.69294  -0.02294   0.00000  -0.04684  -0.04686   2.64608
    R6        2.03401   0.00977   0.00000   0.02138   0.02138   2.05539
    R7        2.70020  -0.01237   0.00000  -0.02773  -0.02774   2.67246
    R8        2.86475  -0.01779   0.00000  -0.04526  -0.04526   2.81949
    R9        2.64961  -0.01419   0.00000  -0.02649  -0.02648   2.62313
   R10        2.03264   0.01016   0.00000   0.02220   0.02220   2.05484
   R11        2.62115   0.01368   0.00000   0.02556   0.02558   2.64673
   R12        2.04650   0.00552   0.00000   0.01233   0.01233   2.05883
   R13        2.61995   0.04148   0.00000   0.07275   0.07271   2.69266
   R14        3.18656   0.03664   0.00000   0.07704   0.07707   3.26363
   R15        2.58282   0.01851   0.00000   0.03117   0.03113   2.61395
   R16        3.21692   0.03180   0.00000   0.06933   0.06936   3.28627
   R17        2.62517   0.00632   0.00000   0.01222   0.01221   2.63738
   R18        2.63546   0.01967   0.00000   0.03725   0.03725   2.67271
   R19        2.66706  -0.01400   0.00000  -0.02725  -0.02728   2.63978
   R20        2.04525   0.00647   0.00000   0.01443   0.01443   2.05968
   R21        2.67725  -0.00664   0.00000  -0.01525  -0.01526   2.66199
   R22        2.85282   0.00355   0.00000   0.00888   0.00888   2.86170
   R23        2.65777  -0.01533   0.00000  -0.02936  -0.02935   2.62843
   R24        2.04613   0.00620   0.00000   0.01383   0.01383   2.05996
   R25        2.63628   0.00586   0.00000   0.01155   0.01158   2.64786
   R26        2.04588   0.00596   0.00000   0.01330   0.01330   2.05919
   R27        2.62582   0.04004   0.00000   0.07055   0.07050   2.69632
   R28        2.67434  -0.01176   0.00000  -0.02264  -0.02264   2.65170
   R29        2.67644  -0.01405   0.00000  -0.02714  -0.02714   2.64930
   R30        2.64005  -0.00727   0.00000  -0.01277  -0.01276   2.62728
   R31        2.03383   0.00975   0.00000   0.02135   0.02135   2.05518
   R32        2.64154  -0.00474   0.00000  -0.00850  -0.00850   2.63304
   R33        2.03329   0.00990   0.00000   0.02165   0.02165   2.05494
   R34        2.63716  -0.00200   0.00000  -0.00290  -0.00291   2.63425
   R35        2.04710   0.00526   0.00000   0.01175   0.01175   2.05885
   R36        2.65683  -0.00813   0.00000  -0.01426  -0.01427   2.64256
   R37        2.03731   0.00875   0.00000   0.01925   0.01925   2.05655
   R38        2.57166  -0.01269   0.00000  -0.01984  -0.01984   2.55182
   R39        2.61402   0.01356   0.00000   0.02291   0.02291   2.63693
   R40        2.09620  -0.00496   0.00000  -0.01195  -0.01195   2.08425
   R41        2.08558  -0.00105   0.00000  -0.00249  -0.00249   2.08310
   R42        2.09635  -0.00499   0.00000  -0.01204  -0.01204   2.08431
   R43        2.90304   0.00092   0.00000   0.00248   0.00248   2.90553
   R44        2.10086  -0.00546   0.00000  -0.01326  -0.01326   2.08760
   R45        2.10186  -0.00727   0.00000  -0.01770  -0.01770   2.08417
   R46        2.89597   0.00077   0.00000   0.00204   0.00204   2.89801
   R47        2.09952  -0.00558   0.00000  -0.01354  -0.01354   2.08598
   R48        2.10259  -0.00644   0.00000  -0.01569  -0.01569   2.08689
   R49        2.89907  -0.00027   0.00000  -0.00073  -0.00073   2.89833
   R50        2.10225  -0.00546   0.00000  -0.01328  -0.01328   2.08897
   R51        2.10171  -0.00557   0.00000  -0.01355  -0.01355   2.08816
   R52        2.89557   0.00092   0.00000   0.00245   0.00245   2.89802
   R53        2.10286  -0.00568   0.00000  -0.01384  -0.01384   2.08902
   R54        2.10240  -0.00579   0.00000  -0.01411  -0.01411   2.08830
   R55        2.89868   0.00001   0.00000   0.00003   0.00003   2.89871
   R56        2.10234  -0.00562   0.00000  -0.01367  -0.01367   2.08867
   R57        2.10183  -0.00560   0.00000  -0.01362  -0.01362   2.08821
   R58        2.89546   0.00012   0.00000   0.00031   0.00031   2.89578
   R59        2.10281  -0.00560   0.00000  -0.01364  -0.01364   2.08917
   R60        2.10238  -0.00557   0.00000  -0.01356  -0.01356   2.08882
   R61        2.88424   0.00408   0.00000   0.01069   0.01069   2.89493
   R62        2.10135  -0.00560   0.00000  -0.01362  -0.01362   2.08773
   R63        2.10077  -0.00546   0.00000  -0.01327  -0.01327   2.08751
   R64        2.09918  -0.00612   0.00000  -0.01484  -0.01484   2.08434
   R65        2.09807  -0.00593   0.00000  -0.01434  -0.01434   2.08373
   R66        2.09981  -0.00630   0.00000  -0.01528  -0.01528   2.08453
    A1        1.61885  -0.00607   0.00000  -0.02347  -0.02339   1.59546
    A2        2.23026  -0.00421   0.00000  -0.01733  -0.01734   2.21292
    A3        1.93344   0.00789   0.00000   0.02182   0.02183   1.95527
    A4        2.11947  -0.00368   0.00000  -0.00449  -0.00449   2.11498
    A5        2.08886   0.00187   0.00000   0.00443   0.00439   2.09325
    A6        2.04141   0.00489   0.00000   0.02340   0.02342   2.06483
    A7        2.15284  -0.00677   0.00000  -0.02782  -0.02780   2.12504
    A8        2.04980   0.00825   0.00000   0.01600   0.01597   2.06577
    A9        2.11767  -0.00506   0.00000  -0.01086  -0.01084   2.10682
   A10        2.11571  -0.00318   0.00000  -0.00514  -0.00512   2.11059
   A11        2.12656   0.00307   0.00000   0.00308   0.00307   2.12963
   A12        2.14037  -0.00795   0.00000  -0.02970  -0.02970   2.11067
   A13        2.01624   0.00487   0.00000   0.02662   0.02662   2.04286
   A14        2.07280   0.00225   0.00000   0.01071   0.01073   2.08354
   A15        2.10205  -0.00160   0.00000  -0.00744  -0.00746   2.09459
   A16        2.10833  -0.00065   0.00000  -0.00326  -0.00327   2.10506
   A17        2.10887  -0.01176   0.00000  -0.02972  -0.02966   2.07921
   A18        1.94500  -0.00405   0.00000  -0.00997  -0.01003   1.93497
   A19        2.22930   0.01582   0.00000   0.03969   0.03970   2.26900
   A20        2.34627  -0.00007   0.00000  -0.00518  -0.00515   2.34113
   A21        1.99579  -0.00592   0.00000  -0.01200  -0.01207   1.98372
   A22        1.94110   0.00598   0.00000   0.01719   0.01722   1.95832
   A23        1.61385  -0.00513   0.00000  -0.01903  -0.01892   1.59493
   A24        2.22149  -0.00171   0.00000  -0.00873  -0.00873   2.21275
   A25        1.94176   0.00607   0.00000   0.01566   0.01567   1.95743
   A26        2.11991  -0.00436   0.00000  -0.00692  -0.00693   2.11299
   A27        2.07445   0.00300   0.00000   0.01029   0.01024   2.08469
   A28        2.08993   0.00059   0.00000   0.00407   0.00409   2.09402
   A29        2.11878  -0.00359   0.00000  -0.01432  -0.01431   2.10447
   A30        2.08675   0.00080   0.00000  -0.00432  -0.00437   2.08238
   A31        2.08963   0.00052   0.00000   0.00496   0.00499   2.09461
   A32        2.10681  -0.00132   0.00000  -0.00065  -0.00062   2.10619
   A33        2.10832   0.00662   0.00000   0.01478   0.01477   2.12309
   A34        2.09972  -0.00556   0.00000  -0.01727  -0.01727   2.08245
   A35        2.07513  -0.00106   0.00000   0.00250   0.00250   2.07763
   A36        2.06916   0.00304   0.00000   0.01003   0.01007   2.07922
   A37        2.10320  -0.00109   0.00000  -0.00312  -0.00314   2.10006
   A38        2.11081  -0.00195   0.00000  -0.00689  -0.00691   2.10389
   A39        2.10769  -0.00910   0.00000  -0.02382  -0.02375   2.08394
   A40        1.93693  -0.00231   0.00000  -0.00508  -0.00516   1.93176
   A41        2.23856   0.01140   0.00000   0.02891   0.02892   2.26748
   A42        1.93169   0.00815   0.00000   0.02364   0.02366   1.95535
   A43        2.36034  -0.00354   0.00000  -0.01489  -0.01486   2.34548
   A44        1.99112  -0.00461   0.00000  -0.00873  -0.00879   1.98233
   A45        2.12216  -0.00055   0.00000  -0.00068  -0.00069   2.12147
   A46        2.12234  -0.00070   0.00000  -0.00114  -0.00115   2.12119
   A47        2.03868   0.00125   0.00000   0.00183   0.00184   2.04052
   A48        2.11816   0.00211   0.00000   0.00640   0.00642   2.12457
   A49        2.13970  -0.00534   0.00000  -0.02204  -0.02205   2.11765
   A50        2.02531   0.00323   0.00000   0.01563   0.01563   2.04093
   A51        2.12294   0.00172   0.00000   0.00461   0.00461   2.12754
   A52        2.13975  -0.00567   0.00000  -0.02345  -0.02345   2.11630
   A53        2.02045   0.00395   0.00000   0.01885   0.01885   2.03930
   A54        2.11478  -0.00384   0.00000  -0.01148  -0.01148   2.10330
   A55        2.08069   0.00438   0.00000   0.01655   0.01655   2.09724
   A56        2.08772  -0.00054   0.00000  -0.00507  -0.00507   2.08265
   A57        2.10442  -0.00265   0.00000  -0.00791  -0.00792   2.09650
   A58        2.04409   0.00478   0.00000   0.01913   0.01914   2.06323
   A59        2.13467  -0.00213   0.00000  -0.01122  -0.01122   2.12346
   A60        2.06739   0.00142   0.00000   0.00655   0.00654   2.07393
   A61        2.05104  -0.00507   0.00000  -0.01655  -0.01654   2.03450
   A62        2.16475   0.00365   0.00000   0.01000   0.01000   2.17475
   A63        2.25598  -0.03277   0.00000  -0.09973  -0.09973   2.15625
   A64        1.90248   0.00054   0.00000   0.00233   0.00233   1.90481
   A65        1.99362  -0.00123   0.00000  -0.00575  -0.00575   1.98787
   A66        1.89964   0.00010   0.00000   0.00080   0.00079   1.90044
   A67        1.89067  -0.00018   0.00000  -0.00150  -0.00150   1.88917
   A68        1.89378   0.00026   0.00000   0.00190   0.00190   1.89568
   A69        1.88144   0.00057   0.00000   0.00254   0.00254   1.88398
   A70        1.93351   0.01017   0.00000   0.03829   0.03820   1.97171
[...]
 00001758,0.00000720,0.00001639,-0.00007801,-0.00007974,-0.00012537,0.0
 0001012,0.00014485,-0.00036674,-0.00037119,-0.00180047,0.00309525,0.00
 095433,0.00055982,-0.00026941,0.13874706,-0.00000088,0.00000097,-0.000
 00013,0.00000195,0.00000140,0.00000109,-0.00000082,-0.00000017,-0.0000
 0075,-0.00000088,-0.00000071,-0.00000073,0.00000112,0.00000141,0.00000
 071,0.00000064,-0.00000039,0.00000005,0.00000003,-0.00000216,-0.000000
 12,-0.00000054,0.00000159,-0.00000068,-0.00000078,0.00000193,0.0000000
 6,0.00000319,-0.00000187,0.00000188,0.00000093,0.00000274,-0.00000038,
 -0.00000006,-0.00000551,-0.00000453,0.00000149,0.00000428,-0.00000024,
 0.,-0.00000144,-0.00000089,-0.00000028,-0.00000110,-0.00000013,-0.0000
 0225,-0.00000077,-0.00000151,0.00000021,-0.00000010,0.00000029,-0.0000
 0032,0.00000027,-0.00000008,0.00000006,-0.00000034,0.00000026,0.000000
 31,-0.00000084,0.00000121,-0.00000194,-0.00000037,0.00000052,0.,0.0000
 0037,0.00000080,-0.00000014,-0.00000088,-0.00000013,-0.00000065,0.0000
 0015,-0.00000023,0.00000038,-0.00000003,0.00000020,-0.00000077,0.00000
 117,0.00000047,0.00000116,0.00000106,-0.00000027,-0.00000110,-0.000004
 41,-0.00000069,0.00000032,-0.00000032,-0.00000005,-0.00000032,-0.00000
 031,0.00000011,-0.00000019,0.00000012,0.00000010,0.00000020,0.00000015
 ,0.00000006,0.00000023,0.00000572,0.00000111,0.00000162,-0.00000177,-0
 .00000056,-0.00000039,-0.00000002,0.00000002,-0.00000035,0.,0.00000006
 ,0.00000009,0.00000034,0.00000006,-0.00000031,0.00000668,0.00000251,0.
 00000499,-0.00000238,-0.00000771,-0.00000729,0.00002597,0.00000542,0.0
 0000192,0.00000290,-0.00007325,-0.00011235,-0.00004427,0.00007172,0.00
 128929,0.00105068,0.00086552,0.00851933,0.00048959,0.01154983,-0.01480
 859,-0.04888219,-0.02180825,-0.00000047,0.00000083,-0.00000125,0.00000
 141,0.00000023,0.00000004,0.00000077,-0.00000057,0.00000108,-0.0000024
 6,-0.00000094,0.00000020,0.00000068,0.00000568,-0.00001054,0.00000592,
 0.00000009,-0.00000160,0.00000173,-0.00000298,0.00000395,-0.00002588,-
 0.00003379,-0.00001297,-0.00005243,-0.00003316,-0.00018338,0.00003869,
 0.00000586,-0.00002320,0.00001920,-0.00000352,-0.00003137,-0.00046333,
 -0.00016072,-0.00022633,-0.00141607,-0.00063423,0.00248344,-0.00003928
 ,0.00029142,-0.00078074,0.01721356,0.04869238,0.00000026,0.00000136,-0
 .00000027,0.00000131,0.00000329,0.00000161,-0.00000123,-0.00000062,-0.
 00000070,-0.00000082,-0.00000080,-0.00000072,0.00000089,0.00000138,0.0
 0000092,0.00000005,0.00000017,0.00000003,0.00000149,-0.00000294,0.0000
 0044,-0.00000117,0.00000116,-0.00000054,-0.00000093,0.00000223,-0.0000
 0031,0.00000429,-0.00000308,0.00000272,-0.00000131,0.00000495,-0.00000
 083,-0.00000030,-0.00001338,-0.00000481,-0.00000105,0.00000815,0.00000
 053,-0.00000013,-0.00000096,0.00000056,0.00000133,-0.00000009,0.000000
 64,-0.00000331,-0.00000161,-0.00000150,0.00000049,0.00000017,0.0000001
 0,-0.00000013,0.00000009,-0.00000023,0.00000028,-0.00000041,-0.0000000
 1,0.00000160,-0.00000186,0.00000126,-0.00000108,-0.00000164,-0.0000013
 1,0.00000131,0.00000193,0.00000028,-0.00000019,-0.00000074,0.00000008,
 -0.00000062,0.00000021,-0.00000009,0.00000062,-0.00000014,0.00000031,-
 0.00000070,0.00000109,0.00000072,0.00000115,0.00000123,0.00000015,-0.0
 0000126,-0.00000409,-0.00000087,0.00000022,-0.00000030,-0.00000029,-0.
 00000032,-0.00000036,-0.00000013,-0.00000012,0.00000013,-0.00000015,0.
 00000021,0.00000021,-0.00000012,0.00000030,0.00000540,0.00000144,0.000
 00150,-0.00000153,-0.00000104,-0.00000025,0.,0.00000014,-0.00000042,-0
 .00000006,0.00000021,0.00000004,0.00000034,0.,-0.00000137,0.00001086,0
 .00000049,0.00000130,-0.00000914,-0.00001952,-0.00001349,0.00000828,0.
 00002313,0.00006226,-0.00000440,0.00000524,0.00021588,0.00007120,0.000
 28904,-0.00072076,-0.00135664,0.00069760,-0.01546536,-0.00297444,-0.02
 164510,-0.12318657,-0.02115092,-0.22609132,0.00000138,-0.00000147,0.00
 000366,0.00000029,-0.00000006,-0.00000073,-0.00000094,0.00000067,-0.00
 000042,0.00000530,0.00000516,0.00000519,0.00000312,-0.00000838,0.00001
 039,0.00000230,-0.00000211,-0.00000582,-0.00000565,0.00000599,-0.00000
 020,0.00003385,0.00006257,0.00001744,-0.00002787,-0.00017058,0.0002916
 6,-0.00000140,-0.00002592,-0.00004410,0.00005616,0.00003691,0.00005202
 ,0.00047330,0.00100471,0.00043642,0.00332526,0.00267998,-0.00357346,0.
 00021311,-0.00053573,0.00063040,0.13282719,0.02118266,0.24785101,0.000
 00098,-0.00000147,0.00000027,-0.00000275,-0.00000361,-0.00000201,0.000
 00147,0.00000083,0.00000110,0.00000157,0.00000056,0.00000121,-0.000001
 73,-0.00000250,-0.00000140,-0.00000104,0.00000079,-0.00000028,-0.00000
 025,0.00000369,0.00000023,0.00000075,-0.00000348,0.00000038,0.00000175
 ,-0.00000382,0.00000032,-0.00000600,0.00000431,-0.00000419,-0.00000139
 ,-0.00000713,-0.00000032,-0.00000113,0.00001530,0.00001348,-0.00000176
 ,-0.00000999,-0.00000071,0.,0.00000260,0.00000033,0.00000040,0.0000008
 5,0.00000026,0.00000454,0.00000161,0.00000283,-0.00000046,0.00000004,-
 0.00000031,0.00000035,-0.00000051,0.00000023,-0.00000023,0.00000056,-0
 .00000015,-0.00000116,0.00000220,-0.00000137,0.00000303,0.00000128,0.0
 0000025,-0.00000077,-0.00000136,-0.00000097,0.00000034,0.00000145,0.00
 000013,0.00000085,-0.00000030,0.00000029,-0.00000080,0.,-0.00000034,0.
 00000109,-0.00000161,-0.00000078,-0.00000157,-0.00000153,0.00000023,0.
 00000147,0.00000591,0.00000102,-0.00000039,0.00000045,0.00000018,0.000
 00049,0.00000040,-0.00000008,0.00000027,-0.00000028,-0.00000005,-0.000
 00026,-0.00000023,-0.00000003,-0.00000022,-0.00000775,-0.00000164,-0.0
 0000229,0.00000234,0.00000095,0.00000050,0.00000001,-0.00000004,0.0000
 0050,0.00000003,-0.00000016,-0.00000010,-0.00000047,-0.00000007,0.0000
 0003,-0.00002642,-0.00000968,-0.00002708,0.00000809,0.00005081,0.00000
 959,-0.00012532,-0.00007745,-0.00016742,-0.00001179,0.00034825,0.00048
 799,-0.00101465,-0.00030567,-0.00121583,-0.00035899,0.00310396,-0.0032
 7585,-0.01460130,-0.00414853,-0.05209885,-0.03997494,-0.00670460,0.000
 00082,-0.00000013,0.00000019,-0.00000133,0.00000014,-0.00000092,0.0000
 0281,-0.00000142,-0.00000015,-0.00000163,-0.00000105,-0.00000325,0.000
 00433,0.00000090,0.00000385,-0.00000976,0.00000353,0.00000052,0.000017
 84,-0.00000134,0.00000448,-0.00000314,0.00000858,-0.00001529,-0.000003
 56,-0.00002875,0.00007822,-0.00002043,0.00006743,-0.00007671,0.0002584
 6,-0.00035503,-0.00000065,0.00015139,0.00042953,0.00015245,0.00049653,
 0.00056399,-0.00008140,-0.00000267,-0.00010531,-0.00055597,-0.00303632
 ,-0.01774627,-0.00196808,0.05306992,0.00000306,-0.00000412,0.00000085,
 -0.00000825,-0.00000783,-0.00000579,0.00000398,0.00000179,0.00000316,0
 .00000416,0.00000196,0.00000335,-0.00000468,-0.00000698,-0.00000370,-0
 .00000306,0.00000250,-0.00000059,0.00000039,0.00000950,0.00000113,0.00
 000220,-0.00000850,0.00000160,0.00000461,-0.00000974,0.00000068,-0.000
 01595,0.00001095,-0.00000993,-0.00000330,-0.00001626,0.00000026,-0.000
 00013,0.00003390,0.00002634,-0.00000572,-0.00002183,-0.00000181,-0.000
 00024,0.00000641,0.00000160,0.00000181,0.00000349,0.00000106,0.0000111
 1,0.00000373,0.00000721,-0.00000116,0.00000039,-0.00000098,0.00000104,
 -0.00000153,0.00000051,-0.00000059,0.00000158,-0.00000070,-0.00000215,
 0.00000514,-0.00000436,0.00000774,0.00000232,0.00000024,-0.00000131,-0
 .00000227,-0.00000251,0.00000106,0.00000415,0.00000043,0.00000227,-0.0
 0000076,0.00000100,-0.00000208,0.00000005,-0.00000078,0.00000331,-0.00
 000479,-0.00000209,-0.00000460,-0.00000440,0.00000089,0.00000419,0.000
 01773,0.00000294,-0.00000121,0.00000130,0.00000033,0.00000144,0.000001
 03,-0.00000044,0.00000082,-0.00000079,-0.00000033,-0.00000078,-0.00000
 051,-0.00000021,-0.00000030,-0.00002303,-0.00000466,-0.00000706,0.0000
 0721,0.00000252,0.00000160,0.00000006,0.00000001,0.00000144,0.00000005
 ,-0.00000042,-0.00000036,-0.00000141,-0.00000025,-0.00000090,-0.000040
 69,-0.00001787,-0.00002842,0.00001835,0.00007349,0.00001953,-0.0001590
 4,-0.00012643,-0.00017740,0.00006026,0.00042405,0.00006957,-0.00071689
 ,-0.00082801,-0.00157140,0.00044008,0.00355397,-0.00025474,-0.01109221
 ,-0.00428174,-0.04084496,-0.30457052,-0.04405251,0.00000193,-0.0000011
 0,0.00000156,-0.00000258,-0.00000043,-0.00000121,0.00000305,-0.0000029
 2,-0.00000249,-0.00000125,-0.00000140,-0.00000478,0.00000739,0.0000005
 0,0.00001207,-0.00001174,0.00000518,0.00000265,0.00001781,-0.00000247,
 -0.00000923,-0.00000748,0.00000188,-0.00001825,0.00003920,-0.00001469,
 0.00008532,-0.00010000,-0.00000345,0.00005626,0.00001103,0.00042891,-0
 .00006141,0.00009545,0.00023115,-0.00006892,0.00040898,0.00019011,0.00
 040347,-0.00045750,0.00058421,0.00005419,0.00049626,-0.00157306,0.0004
 2519,0.04553126,0.32806432,-0.00000104,0.00000100,-0.00000049,0.000002
 16,0.00000326,0.00000168,-0.00000125,-0.00000081,-0.00000080,-0.000001
 26,0.,-0.00000088,0.00000135,0.00000187,0.00000116,0.00000099,-0.00000
 044,0.00000052,0.00000016,-0.00000361,-0.00000033,-0.00000001,0.000004
 70,0.00000036,-0.00000185,0.00000356,-0.00000054,0.00000530,-0.0000047
 4,0.00000411,0.00000221,0.00000802,0.00000127,0.00000179,-0.00001602,-
 0.00001632,0.00000141,0.00000984,0.00000118,-0.00000042,-0.00000226,0.
 00000022,-0.00000051,-0.00000081,-0.00000043,-0.00000437,-0.00000082,-
 0.00000251,0.00000040,0.00000004,0.00000014,-0.00000022,0.00000053,-0.
 00000022,0.00000014,-0.00000050,-0.00000008,0.00000122,-0.00000217,0.0
 0000092,-0.00000256,-0.00000134,-0.00000090,0.00000102,0.00000146,0.00
 000063,-0.00000044,-0.00000105,-0.00000009,-0.00000054,0.00000034,-0.0
 0000020,0.00000082,0.,0.00000025,-0.00000070,0.00000102,0.00000052,0.0
 0000098,0.00000112,-0.00000014,-0.00000096,-0.00000372,-0.00000064,0.0
 0000021,-0.00000038,-0.00000016,-0.00000034,-0.00000027,0.00000005,-0.
 00000015,0.00000027,0.00000004,0.00000016,0.00000015,0.00000003,-0.000
 00004,0.00000516,0.00000114,0.00000173,-0.00000155,-0.00000069,-0.0000
 0035,0.,0.,-0.00000033,-0.00000003,0.00000015,0.00000004,0.00000027,0.
 00000005,0.00000299,0.00003631,0.00001357,0.00003261,-0.00000537,-0.00
 007942,-0.00000303,0.00019199,0.00010878,0.00026308,0.00006020,-0.0005
 5407,0.00025603,0.00156313,0.00083291,0.00247456,0.00087997,-0.0047365
 5,0.00328261,0.02734095,0.00522261,-0.00714947,-0.04595190,-0.05382557
 ,-0.00000145,0.00000006,-0.00000016,0.00000070,-0.00000040,0.00000126,
 -0.00000435,0.00000269,0.00000033,0.00000360,0.00000030,0.00000382,-0.
 00000889,-0.00000006,-0.00000796,0.00000875,-0.00000453,0.00000149,-0.
 00002753,-0.00000610,0.00000084,0.00001851,-0.00001426,0.00001703,-0.0
 0010485,-0.00004098,0.00001529,0.00005483,-0.00003682,0.00002181,-0.00
 015245,-0.00014667,-0.00012164,0.00032065,0.00008681,0.00018277,-0.000
 69004,-0.00009076,0.00080932,-0.00021043,-0.00056860,0.00093253,-0.002
 42994,-0.02544136,-0.00386705,0.00535799,0.04634488,0.05701674,0.00000
 076,-0.00000052,0.00000054,-0.00000143,-0.00000128,-0.00000131,0.00000
 071,0.00000049,0.00000018,0.00000104,-0.00000044,0.00000055,-0.0000007
 9,-0.00000120,-0.00000109,-0.00000064,0.00000054,-0.00000083,0.0000006
 0,0.00000224,0.00000067,0.00000024,-0.00000393,-0.00000108,0.00000174,
 -0.00000294,0.00000128,-0.00000378,0.00000309,-0.00000275,-0.00000051,
 -0.00000423,-0.00000167,0.00000267,0.00000958,0.00000351,-0.00000298,-
 0.00000337,-0.00000259,0.00000064,0.00000134,-0.00000025,0.00000110,0.
 00000144,0.00000101,0.00000269,-0.00000007,0.00000141,-0.00000040,0.00
 000003,0.00000018,0.00000003,-0.00000048,0.00000041,-0.00000020,0.0000
 0024,0.00000060,-0.00000106,0.00000126,0.00000098,0.00000166,0.0000001
 8,0.00000128,-0.00000081,-0.00000002,0.00000021,0.00000067,0.00000067,
 0.,-0.00000008,-0.00000027,0.00000004,-0.00000089,0.00000005,-0.000000
 22,0.00000031,-0.00000031,-0.00000031,-0.00000029,-0.00000058,-0.00000
 010,0.00000029,0.00000154,0.00000035,0.00000002,0.00000027,0.00000026,
 0.00000022,-0.00000002,0.00000004,0.00000011,-0.00000037,0.00000005,0.
 ,0.00000002,0.00000006,0.00000060,-0.00000256,-0.00000084,-0.00000140,
 0.00000087,0.00000068,0.00000020,-0.00000002,0.00000007,0.00000018,0.0
 0000008,-0.00000021,-0.00000001,-0.00000007,0.,-0.00000313,-0.00000694
 ,-0.00000082,-0.00001066,0.00000971,0.00001390,0.00000990,-0.00000988,
 -0.00002012,-0.00000970,-0.00001064,0.00004983,0.00032194,-0.00028274,
 -0.00009009,0.00024887,0.00108130,-0.00049252,-0.01298558,0.00672015,0
 .00153064,-0.25532452,0.10299332,0.03895810,-0.00000073,0.00000041,-0.
 00000029,0.00000408,-0.00000010,-0.00000171,0.00000561,-0.00000711,0.0
 0000101,-0.00000261,-0.00000002,-0.00000089,-0.00000242,0.00000293,0.0
 0000076,0.00001275,0.00000393,-0.00000632,0.00001723,-0.00005946,0.000
 00975,-0.00000992,-0.00000279,-0.00000406,-0.00001870,0.00002728,-0.00
 000709,0.00020211,0.00010603,-0.00018529,0.00011431,-0.00101339,0.0001
 0426,-0.00002079,0.00002459,0.00000961,0.00091021,-0.00022029,0.000156
 11,-0.00004112,-0.00173663,0.00289392,-0.01451595,0.00757599,0.0041687
 9,0.00536809,-0.00323640,-0.00129925,0.27572953,-0.00000129,0.00000121
 ,-0.00000032,0.00000266,0.00000171,0.00000164,-0.00000106,-0.00000031,
 -0.00000078,-0.00000134,-0.00000045,-0.00000095,0.00000150,0.00000193,
 0.00000119,0.00000104,-0.00000076,0.00000045,-0.00000043,-0.00000304,-
 0.00000050,-0.00000071,0.00000303,-0.00000041,-0.00000142,0.00000311,-
 0.00000033,0.00000478,-0.00000331,0.00000293,0.00000111,0.00000430,0.0
 0000006,-0.00000125,-0.00000878,-0.00000596,0.00000251,0.00000552,0.00
 000083,-0.00000004,-0.00000191,-0.00000054,-0.00000091,-0.00000163,-0.
 00000063,-0.00000316,-0.00000063,-0.00000204,0.00000035,-0.00000015,0.
 00000019,-0.00000034,0.00000056,-0.00000025,0.00000013,-0.00000047,0.0
 0000002,0.00000064,-0.00000140,0.00000113,-0.00000231,-0.00000032,-0.0
 0000010,0.00000034,0.00000030,0.00000062,-0.00000051,-0.00000119,-0.00
 000015,-0.00000055,0.00000029,-0.00000027,0.00000079,-0.00000006,0.000
 00025,-0.00000090,0.00000128,0.00000055,0.00000124,0.00000129,-0.00000
 029,-0.00000115,-0.00000502,-0.00000080,0.00000030,-0.00000047,-0.0000
 0013,-0.00000042,-0.00000025,0.00000013,-0.00000025,0.00000032,0.00000
 012,0.00000018,0.00000011,0.00000007,-0.00000019,0.00000682,0.00000143
 ,0.00000237,-0.00000220,-0.00000080,-0.00000051,-0.00000001,-0.0000000
 6,-0.00000041,-0.00000004,0.00000016,0.00000010,0.00000035,0.00000007,
 0.00000152,0.00000914,0.00000312,0.00000605,-0.00000490,-0.00001486,0.
 00000691,0.00002970,0.00002058,0.00007884,-0.00000932,-0.00007763,-0.0
 0011908,0.00004379,0.00018318,-0.00112004,0.00153719,-0.00010235,-0.01
 362114,0.00560312,0.00217132,0.10393580,-0.09756933,-0.01951724,-0.000
 00047,0.00000057,-0.00000082,0.00000023,0.00000055,0.00000041,-0.00000
 096,0.00000041,0.00000117,-0.00000033,-0.00000019,0.00000057,-0.000001
 71,0.00000105,-0.00000500,0.00000621,0.00000305,-0.00000454,0.00000541
 ,-0.00003204,-0.00000064,-0.00000121,-0.00000100,0.00000216,0.00000089
 ,0.00001042,-0.00003521,0.00011881,-0.00012599,-0.00004139,0.00042502,
 -0.00009718,0.00007330,0.00003727,-0.00003616,-0.00004877,0.00044396,0
 .00036399,-0.00066933,-0.00181367,-0.00057525,0.00238895,-0.00416884,0
 .00079933,0.00074674,0.02774011,-0.01184655,-0.00420158,-0.11196049,0.
 10189587,-0.00000097,0.00000042,-0.00000042,0.00000137,0.00000076,0.00
 000086,-0.00000057,-0.00000023,-0.00000047,-0.00000062,-0.00000010,-0.
 00000044,0.00000071,0.00000089,0.00000052,0.00000067,-0.00000026,0.000
 00032,-0.00000045,-0.00000176,-0.00000042,0.00000021,0.00000285,0.0000
 0038,-0.00000091,0.00000169,-0.00000039,0.00000257,-0.00000218,0.00000
 157,0.00000156,0.00000316,0.00000097,-0.00000128,-0.00000604,-0.000003
 35,0.00000150,0.00000299,0.00000063,-0.00000036,-0.00000109,-0.0000005
 2,-0.00000073,-0.00000121,-0.00000052,-0.00000186,0.00000008,-0.000001
 18,0.00000013,-0.00000009,0.00000013,-0.00000015,0.00000033,-0.0000000
 7,0.00000002,-0.00000023,0.,0.00000044,-0.00000076,0.00000019,-0.00000
 155,-0.00000021,-0.00000031,0.00000011,0.00000016,0.00000033,-0.000000
 27,-0.00000055,-0.00000010,-0.00000028,0.00000015,-0.00000015,0.000000
 38,0.00000001,0.00000008,-0.00000043,0.00000058,0.00000021,0.00000054,
 0.00000060,-0.00000022,-0.00000052,-0.00000227,-0.00000031,0.00000016,
 -0.00000022,0.,-0.00000018,-0.00000013,0.00000009,-0.00000009,0.000000
 13,0.00000011,0.00000009,0.00000005,0.00000007,-0.00000008,0.00000308,
 0.00000057,0.00000106,-0.00000101,-0.00000024,-0.00000025,0.,-0.000000
 05,-0.00000016,0.,0.00000004,0.00000005,0.00000016,0.00000005,0.000002
 29,0.00000381,0.00000207,0.00000190,-0.00000443,-0.00000404,0.00000005
 ,-0.00000924,0.00001193,-0.00009253,0.00002074,0.00001235,-0.00008364,
 -0.00002859,-0.00006983,-0.00032602,-0.00130324,0.00064817,0.02445552,
 -0.01225067,-0.00479568,0.03799812,-0.01892514,-0.05330263,0.00000016,
 0.00000012,-0.00000111,-0.00000145,-0.00000004,0.00000022,-0.00000076,
 0.00000345,0.00000149,-0.00000096,0.00000014,0.00000011,0.00000115,-0.
 00000011,-0.00000645,-0.00000649,-0.00000358,-0.00000067,0.00000359,0.
 00005203,0.00000737,-0.00000179,0.00000259,0.00000253,0.00001432,-0.00
 002093,-0.00004702,-0.00019645,-0.00002897,0.00009113,-0.00030649,0.00
 067257,0.00027409,-0.00011296,0.00013291,0.00002467,-0.00029570,-0.000
 77195,0.00060126,0.00282405,0.00286967,-0.00397516,-0.02292527,0.01243
 865,0.00493585,0.00483886,-0.00198082,-0.00197768,-0.04578932,0.019131
 32,0.05756914\\0.,-0.00000006,-0.00000040,-0.00000031,-0.00000008,-0.0
 0000035,0.,0.00000004,-0.00000015,-0.00000006,0.00000009,0.00000014,-0
 .00000030,0.00000013,0.00000035,-0.00000030,-0.00000021,0.00000037,-0.
 00000011,-0.00000016,0.00000018,0.00000005,0.00000021,0.00000007,-0.00
 000051,0.00000018,0.00000030,-0.00000014,0.00000017,0.00000010,-0.0000
 0061,0.00000005,0.00000003,-0.00000032,-0.00000011,-0.00000028,0.00000
 006,0.00000018,-0.00000060,-0.00000014,0.00000022,-0.00000049,-0.00000
 007,0.00000007,-0.00000028,-0.00000044,-0.00000008,-0.00000049,0.00000
 017,-0.00000001,-0.00000036,-0.00000039,0.00000013,0.00000047,-0.00000
 046,0.00000012,0.00000051,-0.00000060,0.00000005,0.00000008,-0.0000000
 3,-0.00000006,-0.00000072,-0.00000005,-0.00000007,-0.00000083,0.,0.000
 00003,0.00000009,-0.00000007,0.00000002,-0.00000018,0.00000005,0.00000
 005,0.00000041,-0.00000005,0.,-0.00000015,0.00000016,-0.00000006,0.000
 00036,0.00000020,0.,0.00000005,0.00000005,0.,0.00000054,-0.00000012,0.
 ,-0.00000043,0.00000017,-0.00000003,0.00000057,-0.00000005,-0.00000004
 ,-0.00000040,0.00000010,-0.00000002,0.00000005,0.00000030,-0.00000009,
 0.00000028,0.00000005,0.00000002,0.00000054,0.00000043,-0.00000009,0.0
 0000050,0.00000027,-0.00000002,0.00000027,-0.00000041,0.,-0.00000029,-
 0.00000004,0.00000001,-0.00000015,-0.00000013,0.00000001,-0.00000012,0
 .00000020,-0.00000002,-0.00000002,0.00000010,-0.00000002,0.00000002,0.
 00000040,-0.00000004,0.00000012,0.00000031,-0.00000006,0.00000017,0.00
 000057,-0.00000007,0.00000025,-0.00000058,0.00000014,-0.00000023,-0.00
 000040,-0.00000003,-0.00000053,-0.00000010,-0.00000001,0.00000008,0.00
 000011,0.00000004,-0.00000031,-0.00000037,0.00000011,-0.00000004,-0.00
 000021,-0.00000004,-0.00000041,0.00000014,-0.00000005,0.00000022,0.000
 00033,0.,-0.00000015,-0.00000013,0.00000006,0.00000011,0.00000003,-0.0
 0000006,-0.00000026,0.00000037,-0.00000007,0.00000037,0.00000056,-0.00
 000006,0.,0.00000009,0.,0.00000025,0.00000027,-0.00000007,-0.00000011,
 0.00000079,-0.00000011,0.00000013,0.00000055,-0.00000008,0.00000028,0.
 00000063,-0.00000011,0.00000051\\\@
 The archive entry for this job was punched.


 IT IS WELL TO REMEMBER THAT MAN IS A PART OF NATURE AND THAT HIS WORKS,
 WHATEVER THEY MAY BE, ARE NO MORE "UNNATURAL" THAN 
 THE FLIGHT OF AN EAGLE OR THE PASSAGE OF A TORNADO.

                                    -- CHARLES MCCARRY IN "THE GREAT SOUTHWEST"
 Job cpu time:       0 days  9 hours 51 minutes 30.3 seconds.
 Elapsed time:       0 days  0 hours 51 minutes  2.8 seconds.
 File lengths (MBytes):  RWF=   2408 Int=      0 D2E=      0 Chk=     33 Scr=      2
 Normal termination of Gaussian 16 at Sat Jan 21 13:47:17 2023.
